IUPAC_name,SMILES,InChI,InChIKey,Molecular_Weight,CMC,pCMC,AW_ST_CMC,Gamma_max,Area_min,Pi_CMC,PC20,C20,Temp_Celsius,Surfactant_Type,Ref_CMC,Ref_AW_ST_CMC,SubRef_CMC,SubRef_AW_ST_CMC,Ref_Gamma_max,Ref_Pi_CMC,Ref_Area_min,Ref_PC20,Ref_C20
,CCCCCCCCCCCCOCOC[C@H]1O[C@@H](O[C@@H]([C@H](O)[C@@H](O)CO)[C@H](O)CO)[C@H](O)[C@@H](O)[C@H]1O,"InChI=1S/C25H50O12/c1-2-3-4-5-6-7-8-9-10-11-12-34-16-35-15-19-21(31)22(32)23(33)25(36-19)37-24(18(29)14-27)20(30)17(28)13-26/h17-33H,2-16H2,1H3/t17-,18+,19+,20+,21-,22-,23+,24+,25-/m0/s1",OBLSAAXDWHBWEW-QDYYEOJNSA-N,542.33022704,0.0004266,3.36997914888659,,,,,,,25,non-ionic,10.1021/ie4016232,,,,,,,,
,CCCCCCCCCCCCOCOC[C@H]1O[C@@H](O[C@H]2[C@H](O)[C@@H](O)[C@H](O)O[C@@H]2CO)[C@H](O)[C@@H](O)[C@H]1O,"InChI=1S/C25H48O12/c1-2-3-4-5-6-7-8-9-10-11-12-33-15-34-14-17-18(27)19(28)22(31)25(36-17)37-23-16(13-26)35-24(32)21(30)20(23)29/h16-32H,2-15H2,1H3/t16-,17-,18+,19+,20-,21-,22-,23-,24-,25+/m1/s1",WODCIAQPVOPRSJ-PZYBZDCESA-N,540.314576976,0.0004266,3.36997914888659,,,,,,,25,non-ionic,10.1021/ie4016232,,,,,,,,
,CCCCCCCCCCCCOCOOCCOCCOCCCCCC,"InChI=1S/C23H48O5/c1-3-5-7-9-10-11-12-13-14-16-18-26-23-28-27-22-21-25-20-19-24-17-15-8-6-4-2/h3-23H2,1-2H3",AFKMZNZSNOXRPQ-UHFFFAOYSA-N,404.350174636,0.00003631,4.43997375108711,,,,,,,25,non-ionic,10.1021/ie4016232,,,,,,,,
,CCCCCCCCCCCCOOC(O)(C(O)C(O)C(O)C(O)C(O)CC)C(O)C(O)C(O)C(O)C(O)CO,"InChI=1S/C26H54O14/c1-3-5-6-7-8-9-10-11-12-13-14-39-40-26(38,24(36)22(34)20(32)18(30)16(28)4-2)25(37)23(35)21(33)19(31)17(29)15-27/h16-25,27-38H,3-15H2,1-2H3",IZOCGZVGLOEAKK-UHFFFAOYSA-N,590.351356408,0.0003296,3.48201279697492,,,,,,,25,non-ionic,10.1021/ie4016232,,,,,,,,
1-ethylperoxydodecane,CCCCCCCCCCCCOOCC,"InChI=1S/C14H30O2/c1-3-5-6-7-8-9-10-11-12-13-14-16-15-4-2/h3-14H2,1-2H3",SWSXLQWZZXOFTH-UHFFFAOYSA-N,230.2245802,0.00002301,4.63808338133136,,,,,,,25,non-ionic,10.1021/ie4016232,,,,,,,,
,CCCCCCCCCCCCOOCCOCC,"InChI=1S/C16H34O3/c1-3-5-6-7-8-9-10-11-12-13-14-18-19-16-15-17-4-2/h3-16H2,1-2H3",OZNMEPRHWTUSQC-UHFFFAOYSA-N,274.250794948,0.00003304,4.48095996135166,,,,,,,25,non-ionic,10.1021/ie4016232,,,,,,,,
,CCCCCCCCCCCCOOCCOCCOCC,"InChI=1S/C18H38O4/c1-3-5-6-7-8-9-10-11-12-13-14-21-22-18-17-20-16-15-19-4-2/h3-18H2,1-2H3",GILWMZZLBQLKQB-UHFFFAOYSA-N,318.277009696,0.000052,4.2839966563652,27.9,,,44.1,,,25,non-ionic,10.1021/ie4016232,10.1081/DIS-200054572,,,,,,,
,CCCCCCCCCCCCOOCCOCCOCCOCC,"InChI=1S/C20H42O5/c1-3-5-6-7-8-9-10-11-12-13-14-24-25-20-19-23-18-17-22-16-15-21-4-2/h3-20H2,1-2H3",YKJWJVOPOCVHFN-UHFFFAOYSA-N,362.303224444,0.00006397,4.19402364928244,28.6,,,43.4,,,25,non-ionic,10.1021/ie4016232,10.1081/DIS-200054572,,,,,,,
,CCCCCCCCCCCCOOCCOCCOCCOCCOCC,"InChI=1S/C22H46O6/c1-3-5-6-7-8-9-10-11-12-13-14-27-28-22-21-26-20-19-25-18-17-24-16-15-23-4-2/h3-22H2,1-2H3",WWEWHCWUONTOPI-UHFFFAOYSA-N,406.329439192,0.00006397,4.19402364928244,30.5,,,41.5,,,25,non-ionic,10.1021/ie4016232,10.1081/DIS-200054572,,,,,,,
,CCCCCCCCCCCCOOCCOCCOCCOCCOCCOCC,"InChI=1S/C24H50O7/c1-3-5-6-7-8-9-10-11-12-13-14-30-31-24-23-29-22-21-28-20-19-27-18-17-26-16-15-25-4-2/h3-24H2,1-2H3",UGLROADYJOMZBK-UHFFFAOYSA-N,450.35565394,0.0000871,4.05998184499234,31,,,41,,,25,non-ionic,10.1021/ie4016232,10.1081/DIS-200054572,,,,,,,
,CCCCCCCCCCCCOOCCOCCOCCOCCOCCOCCOCC,"InChI=1S/C26H54O8/c1-3-5-6-7-8-9-10-11-12-13-14-33-34-26-25-32-24-23-31-22-21-30-20-19-29-18-17-28-16-15-27-4-2/h3-26H2,1-2H3",LUQJPQKWMDFSPD-UHFFFAOYSA-N,494.381868688,0.00008204,4.08597434830367,33.7,,,38.3,,,25,non-ionic,10.1021/ie4016232,10.1081/DIS-200054572,,,,,,,
,CCCCCCCCCCCCOOCCOCCOCCOCCOCCOCCOCCOCC,"InChI=1S/C28H58O9/c1-3-5-6-7-8-9-10-11-12-13-14-36-37-28-27-35-26-25-34-24-23-33-22-21-32-20-19-31-18-17-30-16-15-29-4-2/h3-28H2,1-2H3",DHVBFGDCVYSBLW-UHFFFAOYSA-N,538.408083436,0.0001,4,34.8,,,37.2,,,25,non-ionic,10.1021/ie4016232,10.1081/DIS-200054572,,,,,,,
,CCCCCCCCCCCCOOCCOCCOCCOCCOCCOCCOCCOCCOCC,"InChI=1S/C30H62O10/c1-3-5-6-7-8-9-10-11-12-13-14-39-40-30-29-38-28-27-37-26-25-36-24-23-35-22-21-34-20-19-33-18-17-32-16-15-31-4-2/h3-30H2,1-2H3",ZWJMATNWKRUBHW-UHFFFAOYSA-N,582.434298184,0.0001,4,36,,,36,,,25,non-ionic,10.1021/ie4016232,10.1081/DIS-200054572,,,,,,,
,CCCCCCCCCCCCOOCCOCCOCCOCCOCCOCCOCCOCCOCCOCCOCCOCC,"InChI=1S/C36H74O13/c1-3-5-6-7-8-9-10-11-12-13-14-48-49-36-35-47-34-33-46-32-31-45-30-29-44-28-27-43-26-25-42-24-23-41-22-21-40-20-19-39-18-17-38-16-15-37-4-2/h3-36H2,1-2H3",REKWAMOSVMGVTC-UHFFFAOYSA-N,714.512942428,0.00014,3.85387196432176,40,,,32,,,25,non-ionic,10.1021/ie4016232,10.1081/DIS-200054572,,,,,,,
,CCCCCCCCCCCCOOCCOCCOCCOCCOCCOCCOCCOCCOCCOCCOCCOCCOCCOCC,"InChI=1S/C40H82O15/c1-3-5-6-7-8-9-10-11-12-13-14-54-55-40-39-53-38-37-52-36-35-51-34-33-50-32-31-49-30-29-48-28-27-47-26-25-46-24-23-45-22-21-44-20-19-43-18-17-42-16-15-41-4-2/h3-40H2,1-2H3",HPBOXCSNIBILRH-UHFFFAOYSA-N,802.565371924,0.00005495,4.26003230324049,35.3,,,36.7,,,25,non-ionic,10.1021/ie4016232,10.1081/DIS-200054572,,,,,,,
,CCCCCCCCCCCCOP(=O)([O-])OCC[N+](C)(C)CCCCCCCC,"InChI=1S/C24H52NO4P/c1-5-7-9-11-13-14-15-16-18-20-23-28-30(26,27)29-24-22-25(3,4)21-19-17-12-10-8-6-2/h5-24H2,1-4H3",FUAPGJUFMBEHEO-UHFFFAOYSA-N,449.363395774,1.80011396041801E-05,4.7447,,,,,,,25,gemini zwitterionic,10.1016/j.chemosphere.2011.05.031,,,,,,,,
,CCCCCCCCCCCCOP(=O)([O-])OCC[N+](C)(C)CCCCCCCCCCCC,"InChI=1S/C28H60NO4P/c1-5-7-9-11-13-15-17-19-21-23-25-29(3,4)26-28-33-34(30,31)32-27-24-22-20-18-16-14-12-10-8-6-2/h5-28H2,1-4H3",YUQBZWMYOBTPKL-UHFFFAOYSA-N,505.42599603,8.99911910870052E-06,5.0458,,,,,,,25,gemini zwitterionic,10.1016/j.chemosphere.2011.05.031,,,,,,,,
lithium-dodecyl-sulfate,CCCCCCCCCCCCOS(=O)(=O)[O-].[Li+],"InChI=1S/C12H26O4S.Li/c1-2-3-4-5-6-7-8-9-10-11-12-16-17(13,14)15;/h2-12H2,1H3,(H,13,14,15);/q;+1/p-1",YFVGRULMIQXYNE-UHFFFAOYSA-M,272.16335983,0.0089,2.05060999335509,,,,,,,25,anionic,10.1021/acs.jpcb.1c05264,,10.1002/9781118228920,,,,,,
sodium-dodecylsulfate,CCCCCCCCCCCCOS(=O)(=O)[O-].[Na+],"InChI=1S/C12H26O4S.Na/c1-2-3-4-5-6-7-8-9-10-11-12-16-17(13,14)15;/h2-12H2,1H3,(H,13,14,15);/q;+1/p-1",DBMJMQXJHONAFJ-UHFFFAOYSA-M,288.13712456,0.0081,2.09151498112135,39.5,0.00000195,0.52,32,2.5,0.00315,25,anionic,"['10.1016/0021-9797(76)90178-8', '10.1021/acs.jpcb.1c05264', '10.1021/ci600462d', '10.1021/acs.jpcb.1c05264', '10.1021/ci600462d']",https://www.ajer.org/papers/Vol-9-issue-8/M0908118126.pdf,10.1002/9781118228920,,"['10.1002/9781118228920.ch5', 'https://www.ajer.org/papers/Vol-9-issue-8/M0908118126.pdf']","['10.1002/9781118228920.ch5', 'https://www.ajer.org/papers/Vol-9-issue-8/M0908118126.pdf']",https://www.ajer.org/papers/Vol-9-issue-8/M0908118126.pdf,,
Dodecyl-β-D-galactoside,CCCCCCCCCCCCO[C@@H]1O[C@H](CO)[C@H](O)[C@H](O)[C@H]1O,"InChI=1S/C18H36O6/c1-2-3-4-5-6-7-8-9-10-11-12-23-18-17(22)16(21)15(20)14(13-19)24-18/h14-22H,2-13H2,1H3/t14-,15+,16+,17-,18-/m1/s1",PYIDGJJWBIBVIA-DISONHOPSA-N,348.251188872,0.0002,3.69897000433602,31.5,0.00000326,0.51,40.47,4.80044165597555,0.00822611313458767,25,sugar-based non-ionic,10.1021/acs.iecr.6b02890,10.1016/j.jcis.2018.01.051,10.1016/j.molliq.2018.01.037,,10.1007/BF02541865,calculated,10.1007/BF02541865,calculated,calculated
Dodecyl-α-D-mannoside,CCCCCCCCCCCCO[C@H]1O[C@H](CO)[C@@H](O)[C@H](O)[C@@H]1O,"InChI=1S/C18H36O6/c1-2-3-4-5-6-7-8-9-10-11-12-23-18-17(22)16(21)15(20)14(13-19)24-18/h14-22H,2-13H2,1H3/t14-,15-,16+,17+,18+/m1/s1",PYIDGJJWBIBVIA-ZBRFXRBCSA-N,348.251188872,0.00005,4.30102999566398,28.4,0.00000308,0.54,43.57,5.6431716331448,0.00354161786175595,25,sugar-based non-ionic,10.1021/acs.iecr.6b02890,10.1016/j.jcis.2018.01.051,10.1016/j.molliq.2018.01.037,,10.1007/BF02541865,calculated,10.1007/BF02541865,calculated,calculated
,CCCCCCCCCCCCOc1ccc(C[n+]2ccn(C)c2)cc1.[Br-],"InChI=1S/C23H37N2O.BrH/c1-3-4-5-6-7-8-9-10-11-12-19-26-23-15-13-22(14-16-23)20-25-18-17-24(2)21-25;/h13-18,21H,3-12,19-20H2,1-2H3;1H/q+1;/p-1",QUSSYFCQBKPQOS-UHFFFAOYSA-M,436.208925904,,,37.9,,,,,,,cationic,,10.1016/j.ces.2022.118208,,10.1002/ejlt.201000437,,,,,
,CCCCCCCCCCCCOc1ccc(C[n+]2ccn(CCCCCCn3cc[n+](Cc4ccc(OCCCCCCCCCCCC)cc4)c3)c2)cc1.[Br-].[Br-],"InChI=1S/C50H80N4O2.2BrH/c1-3-5-7-9-11-13-15-17-21-25-41-55-49-31-27-47(28-32-49)43-53-39-37-51(45-53)35-23-19-20-24-36-52-38-40-54(46-52)44-48-29-33-50(34-30-48)56-42-26-22-18-16-14-12-10-8-6-4-2;;/h27-34,37-40,45-46H,3-26,35-36,41-44H2,1-2H3;2*1H/q+2;;/p-2",JFUDMCFTQCQUPG-UHFFFAOYSA-L,926.464802,,,42.8,,,,,,,gemini cationic,,10.1016/j.ces.2022.118208,,10.1002/ejlt.201000437,,,,,
,CCCCCCCCCCCCOc1ccc(C[n+]2ccn(CCCn3cc[n+](Cc4ccc(OCCCCCCCCCCCC)cc4)c3)c2)cc1.[Br-].[Br-],"InChI=1S/C47H74N4O2.2BrH/c1-3-5-7-9-11-13-15-17-19-21-38-52-46-28-24-44(25-29-46)40-50-36-34-48(42-50)32-23-33-49-35-37-51(43-49)41-45-26-30-47(31-27-45)53-39-22-20-18-16-14-12-10-8-6-4-2;;/h24-31,34-37,42-43H,3-23,32-33,38-41H2,1-2H3;2*1H/q+2;;/p-2",WRSBRTMQHCNHTG-UHFFFAOYSA-L,884.417851808,,,32.8,,,,,,,gemini cationic,,10.1016/j.ces.2022.118208,,10.1002/ejlt.201000437,,,,,
"N,N,N′,N′-tetramethyldodecylenediaminewith2-bromo-N-(4-(hexyloxy)phenyl)acetamide",CCCCCCCCCCCCOc1ccc(NC(=O)C[N+](C)(C)CCCCCC[N+](C)(C)CC(=O)Nc2ccc(OCCCCCCCCCCCC)cc2)cc1.[Br-].[Br-],"InChI=1S/C50H86N4O4.2BrH/c1-7-9-11-13-15-17-19-21-25-29-41-57-47-35-31-45(32-36-47)51-49(55)43-53(3,4)39-27-23-24-28-40-54(5,6)44-50(56)52-46-33-37-48(38-34-46)58-42-30-26-22-20-18-16-14-12-10-8-2;;/h31-38H,7-30,39-44H2,1-6H3;2*1H",YMDDJTQKSXLWTI-UHFFFAOYSA-N,966.517231496,0.0000104,4.98296666070122,49,0.00000201,0.83,23,5.06,0.00000874,25,gemini cationic,10.1016/j.molliq.2017.06.008,"['10.1016/j.ces.2022.118208', '10.1016/j.molliq.2017.06.008', '10.1201/9780203911518']",,10.1016/j.molliq.2017.06.008,10.1016/j.molliq.2017.06.008,,10.1016/j.molliq.2017.06.008,10.1016/j.molliq.2017.06.008,
"N,N,N′,N′-tetramethyldodecylenediaminewith2-bromo-N-(4-(butyloxy)phenyl)acetamide",CCCCCCCCCCCCOc1ccc(NC(=O)C[N+](C)(C)CCCC[N+](C)(C)CC(=O)Nc2ccc(OCCCCCCCCCCCC)cc2)cc1.[Br-].[Br-],"InChI=1S/C48H82N4O4.2BrH/c1-7-9-11-13-15-17-19-21-23-27-39-55-45-33-29-43(30-34-45)49-47(53)41-51(3,4)37-25-26-38-52(5,6)42-48(54)50-44-31-35-46(36-32-44)56-40-28-24-22-20-18-16-14-12-10-8-2;;/h29-36H,7-28,37-42H2,1-6H3;2*1H",DYCFFTGSAVUMBZ-UHFFFAOYSA-N,938.485931368,0.0000142,4.84771165561694,44.8,0.00000165,1.01,27.2,4.97,0.0000107,25,gemini cationic,10.1016/j.molliq.2017.06.008,"['10.1016/j.ces.2022.118208', '10.1016/j.molliq.2017.06.008', '10.1201/9780203911518']",,10.1016/j.molliq.2017.06.008,10.1016/j.molliq.2017.06.008,,10.1016/j.molliq.2017.06.008,10.1016/j.molliq.2017.06.008,
"N,N,N′,N′-tetramethyldodecylenediaminewith2-bromo-N-(4-(ethyloxy)phenyl)acetamide",CCCCCCCCCCCCOc1ccc(NC(=O)C[N+](C)(C)CC[N+](C)(C)CC(=O)Nc2ccc(OCCCCCCCCCCCC)cc2)cc1.[Br-].[Br-],"InChI=1S/C46H78N4O4.2BrH/c1-7-9-11-13-15-17-19-21-23-25-37-53-43-31-27-41(28-32-43)47-45(51)39-49(3,4)35-36-50(5,6)40-46(52)48-42-29-33-44(34-30-42)54-38-26-24-22-20-18-16-14-12-10-8-2;;/h27-34H,7-26,35-40H2,1-6H3;2*1H",PLBQBZJYCJZXLU-UHFFFAOYSA-N,910.45463124,0.00003443,4.46306297729533,44.6,0.0000018,0.92,27.4,4.69,0.0000204,25,gemini cationic,10.1016/j.molliq.2017.06.008,"['10.1016/j.ces.2022.118208', '10.1016/j.molliq.2017.06.008', '10.1201/9780203911518']",10.3390/pr7080502,10.1016/j.molliq.2017.06.008,10.1016/j.molliq.2017.06.008,,10.1016/j.molliq.2017.06.008,10.1016/j.molliq.2017.06.008,
,CCCCCCCCCCCCOc1ccc[n+](CC(O)C[n+]2cccc(OCCCCCCCCCCCC)c2)c1,"InChI=1S/C37H64N2O3/c1-3-5-7-9-11-13-15-17-19-21-29-41-36-25-23-27-38(33-36)31-35(40)32-39-28-24-26-37(34-39)42-30-22-20-18-16-14-12-10-8-6-4-2/h23-28,33-35,40H,3-22,29-32H2,1-2H3/q+2",JJVUJQYIUJPLFD-UHFFFAOYSA-N,584.49059674818,0.00014,3.85387196432176,33.64,0.00000076,2.1,38.36,3.67778070526608,0.00021,25,gemini cationic,10.1021/la5045267,10.1021/la5045267,,,10.1021/la5045267,10.1021/la5045267,10.1021/la5045267,,10.1021/la5045267
,CCCCCCCCCCCCOc1ccc[n+](CC(O)C[n+]2cccc(OCCCCCCCCCCCC)c2)c1.[Br-].[Br-],"InChI=1S/C37H64N2O3.2BrH/c1-3-5-7-9-11-13-15-17-19-21-29-41-36-25-23-27-38(33-36)31-35(40)32-39-28-24-26-37(34-39)42-30-22-20-18-16-14-12-10-8-6-4-2;;/h23-28,33-35,40H,3-22,29-32H2,1-2H3;2*1H/q+2;;/p-2",XEBLEMLOOYCMAZ-UHFFFAOYSA-L,742.328368108,0.00015,3.82390874094432,,,,,,,25,gemini cationic,10.1063/5.0051623,,,,,,,,
"1,1'-(hexane-1,6-diyl)bis(3-(dodecyloxy)pyridin-1-ium)",CCCCCCCCCCCCOc1ccc[n+](CCCCCC[n+]2cccc(OCCCCCCCCCCCC)c2)c1.[Br-].[Br-],"InChI=1S/C40H70N2O2.2BrH/c1-3-5-7-9-11-13-15-17-21-25-35-43-39-29-27-33-41(37-39)31-23-19-20-24-32-42-34-28-30-40(38-42)44-36-26-22-18-16-14-12-10-8-6-4-2;;/h27-30,33-34,37-38H,3-26,31-32,35-36H2,1-2H3;2*1H/q+2;;/p-2",ULMLESYNYYARBN-UHFFFAOYSA-L,768.38040368,0.00019,3.72124639904717,37.8,0.00000185,0.9,34.13,4.38,0.000042,25,gemini cationic,10.1016/j.jcis.2013.11.059,10.1016/j.ces.2022.118208,,10.1016/j.jcis.2013.11.059,10.1016/j.jcis.2013.11.059,,10.1016/j.jcis.2013.11.059,10.1016/j.jcis.2013.11.059,10.1016/j.jcis.2013.11.059
"1,1'-(pentane-1,5-diyl)bis(3-(dodecyloxy)pyridin-1-ium)",CCCCCCCCCCCCOc1ccc[n+](CCCCC[n+]2cccc(OCCCCCCCCCCCC)c2)c1.[Br-].[Br-],"InChI=1S/C39H68N2O2.2BrH/c1-3-5-7-9-11-13-15-17-19-24-34-42-38-28-26-32-40(36-38)30-22-21-23-31-41-33-27-29-39(37-41)43-35-25-20-18-16-14-12-10-8-6-4-2;;/h26-29,32-33,36-37H,3-25,30-31,34-35H2,1-2H3;2*1H/q+2;;/p-2",BFHQMTGIWWXRSE-UHFFFAOYSA-L,754.364753616,0.00017,3.76955107862173,37.3,0.00000186,0.89,34.75,4.47,0.000034,25,gemini cationic,10.1016/j.jcis.2013.11.059,10.1016/j.ces.2022.118208,,10.1016/j.jcis.2013.11.059,10.1016/j.jcis.2013.11.059,,10.1016/j.jcis.2013.11.059,10.1016/j.jcis.2013.11.059,10.1016/j.jcis.2013.11.059
"1,1'-(butane-1,4-diyl)bis(3-(dodecyloxy)pyridin-1-ium)",CCCCCCCCCCCCOc1ccc[n+](CCCC[n+]2cccc(OCCCCCCCCCCCC)c2)c1.[Br-].[Br-],"InChI=1S/C38H66N2O2.2BrH/c1-3-5-7-9-11-13-15-17-19-23-33-41-37-27-25-31-39(35-37)29-21-22-30-40-32-26-28-38(36-40)42-34-24-20-18-16-14-12-10-8-6-4-2;;/h25-28,31-32,35-36H,3-24,29-30,33-34H2,1-2H3;2*1H/q+2;;/p-2",RFNIAHHGSCYYBJ-UHFFFAOYSA-L,740.349103552,0.00014,3.85387196432176,38.8,0.00000207,0.82,33.23,4.41,0.000039,25,gemini cationic,10.1016/j.jcis.2013.11.059,10.1016/j.ces.2022.118208,10.3390/molecules25184054,10.1016/j.jcis.2013.11.059,10.1016/j.jcis.2013.11.059,,10.1016/j.jcis.2013.11.059,10.1016/j.jcis.2013.11.059,10.1016/j.jcis.2013.11.059
,CCCCCCCCCCCCOc1ccc[n+](CCC[n+]2cccc(OCCCCCCCCCCCC)c2)c1.[Br-].[Br-],"InChI=1S/C37H64N2O2.2BrH/c1-3-5-7-9-11-13-15-17-19-21-32-40-36-26-23-28-38(34-36)30-25-31-39-29-24-27-37(35-39)41-33-22-20-18-16-14-12-10-8-6-4-2;;/h23-24,26-29,34-35H,3-22,25,30-33H2,1-2H3;2*1H/q+2;;/p-2",MVPSVOFERSTCLW-UHFFFAOYSA-L,726.333453488,0.0001901,3.72101788313456,,,,,,,25,gemini cationic,10.1063/5.0051623,,,,,,,,
,CCCCCCCCCCCCOc1ccc[n+](CC[n+]2cccc(OCCCCCCCCCCCC)c2)c1.[Br-].[Br-],"InChI=1S/C36H62N2O2.2BrH/c1-3-5-7-9-11-13-15-17-19-21-31-39-35-25-23-27-37(33-35)29-30-38-28-24-26-36(34-38)40-32-22-20-18-16-14-12-10-8-6-4-2;;/h23-28,33-34H,3-22,29-32H2,1-2H3;2*1H/q+2;;/p-2",LXHQJFBRZLRWNB-UHFFFAOYSA-L,712.317803424,0.0001799,3.74496883665445,,,,,,,25,gemini cationic,10.1063/5.0051623,,,,,,,,
,CCCCCCCCCCCCS(=O)(=O)[O-].CCC[N+](CCC)(CCC)CCC,"InChI=1S/C12H28N.C12H26O3S/c1-5-9-13(10-6-2,11-7-3)12-8-4;1-2-3-4-5-6-7-8-9-10-11-12-16(13,14)15/h5-12H2,1-4H3;2-12H2,1H3,(H,13,14,15)/q+1;/p-1",BTUAXUKBFYAJGR-UHFFFAOYSA-M,435.374615556,0.0022,2.65757731917779,,,,,,,25,anionic,10.1002/9781118228920.ch3,,,,,,,,
"dodecane-1-sulfonate,tetramethylazanium",CCCCCCCCCCCCS(=O)(=O)[O-].C[N+](C)(C)C,"InChI=1S/C12H26O3S.C4H12N/c1-2-3-4-5-6-7-8-9-10-11-12-16(13,14)15;1-5(2,3)4/h2-12H2,1H3,(H,13,14,15);1-4H3/q;+1/p-1",COYDDTAGUGHNFA-UHFFFAOYSA-M,323.249415044,0.0055,2.25963731050576,,,,,,,25,anionic,10.1002/9781118228920.ch3,,,,,,,,
potassium-dodecane-1-sulfonate,CCCCCCCCCCCCS(=O)(=O)[O-].[K+],"InChI=1S/C12H26O3S.K/c1-2-3-4-5-6-7-8-9-10-11-12-16(13,14)15;/h2-12H2,1H3,(H,13,14,15);/q;+1/p-1",LQAZPMXASFNKCD-UHFFFAOYSA-M,288.11614734,0.0093,2.03151705144606,38,0.0000033,0.5,34,2.41,0.00391,25,anionic,10.1021/acs.jpcb.1c05264,,10.1002/9781118228920,,10.1002/9781118228920.ch5,10.1002/9781118228920.ch5,,,
lithium-dodecane-1-sulfonate,CCCCCCCCCCCCS(=O)(=O)[O-].[Li+],"InChI=1S/C12H26O3S.Li/c1-2-3-4-5-6-7-8-9-10-11-12-16(13,14)15;/h2-12H2,1H3,(H,13,14,15);/q;+1/p-1",DNXKVOCRSQBZHO-UHFFFAOYSA-M,256.16844521,0.011,1.95860731484178,39,0.0000029,0.57,33,2.41,0.00393,25,anionic,10.1021/acs.jpcb.1c05264,,10.1002/9781118228920,,10.1002/9781118228920.ch5,10.1002/9781118228920.ch5,,,
azanium-dodecane-1-sulfonate,CCCCCCCCCCCCS(=O)(=O)[O-].[NH4+],"InChI=1S/C12H26O3S.H3N/c1-2-3-4-5-6-7-8-9-10-11-12-16(13,14)15;/h2-12H2,1H3,(H,13,14,15);1H3",AERRGWRSYANDQB-UHFFFAOYSA-N,267.186814788,0.0089,2.05060999335509,,,,,,,25,anionic,10.1021/acs.jpcb.1c05264,,10.1002/9781118228920,,,,,,
sodium-dodecane-1-sulfonate,CCCCCCCCCCCCS(=O)(=O)[O-].[Na+],"InChI=1S/C12H26O3S.Na/c1-2-3-4-5-6-7-8-9-10-11-12-16(13,14)15;/h2-12H2,1H3,(H,13,14,15);/q;+1/p-1",DAJSVUQLFFJUSX-UHFFFAOYSA-M,272.14220994,0.01099,1.95900230757651,,,,,,,25,anionic,"['10.1021/acs.jpcb.1c05264', '10.1021/ci600462d']",,10.1002/9781118228920,,,,,,
,CCCCCCCCCCCC[N+](C)(C)C(=O)NCCCCCCCCCCCCNC(=O)[N+](C)(C)CCCCCCCCCCCC.[Cl-].[Cl-],"InChI=1S/C42H86N4O2.2ClH/c1-7-9-11-13-15-17-23-27-31-35-39-45(3,4)41(47)43-37-33-29-25-21-19-20-22-26-30-34-38-44-42(48)46(5,6)40-36-32-28-24-18-16-14-12-10-8-2;;/h7-40H2,1-6H3;2*1H",QECLPPLNLNMYLT-UHFFFAOYSA-N,750.628433416,0.0002198,3.65797231191253,,,,,,,25,gemini cationic,10.1063/5.0051623,,10.1002/9781119075691.ch43,,,,,,
,CCCCCCCCCCCC[N+](C)(C)C(=O)NCCNC(=O)[N+](C)(C)CCCCCCCCCCCC.[Cl-].[Cl-],"InChI=1S/C32H66N4O2.2ClH/c1-7-9-11-13-15-17-19-21-23-25-29-35(3,4)31(37)33-27-28-34-32(38)36(5,6)30-26-24-22-20-18-16-14-12-10-8-2;;/h7-30H2,1-6H3;2*1H",IHUBAHJIKYCNNE-UHFFFAOYSA-N,610.471932776,0.0009397,3.02701077314465,,,,,,,25,gemini cationic,10.1063/5.0051623,,10.1002/9781119075691.ch43,,,,,,
,CCCCCCCCCCCC[N+](C)(C)C(=O)OCCCCCCOC(=O)[N+](C)(C)CCCCCCCCCCCC.[Cl-].[Cl-],"InChI=1S/C36H74N2O4.2ClH/c1-7-9-11-13-15-17-19-21-23-27-31-37(3,4)35(39)41-33-29-25-26-30-34-42-36(40)38(5,6)32-28-24-22-20-18-16-14-12-10-8-2;;/h7-34H2,1-6H3;2*1H/q+2;;/p-2",JIWBGUOOEINVHS-UHFFFAOYSA-L,668.502564208,0.0007691,3.11401718864503,,,,,,,25,gemini cationic,10.1063/5.0051623,,10.1002/9781119075691.ch43,,,,,,
,CCCCCCCCCCCC[N+](C)(C)C(C)C(O)c1ccccc1.[Br-],"InChI=1S/C23H42NO.BrH/c1-5-6-7-8-9-10-11-12-13-17-20-24(3,4)21(2)23(25)22-18-15-14-16-19-22;/h14-16,18-19,21,23,25H,5-13,17,20H2,1-4H3;1H/q+1;/p-1",GOIUTZPQFMGLAH-UHFFFAOYSA-M,427.244977064,,,31.8,,,,,,,cationic,,10.1016/j.ces.2022.118208,,10.1016/j.jcis.2005.05.054,,,,,
,CCCCCCCCCCCC[N+](C)(C)C.COS(=O)(=O)[O-],"InChI=1S/C15H34N.CH4O4S/c1-5-6-7-8-9-10-11-12-13-14-15-16(2,3)4;1-5-6(2,3)4/h5-15H2,1-4H3;1H3,(H,2,3,4)/q+1;/p-1",ODGXMRVMAFAHQH-UHFFFAOYSA-M,339.244329664,,,38.3,,,,,,,zwitterionic,,10.1016/j.ces.2022.118208,,10.1002/0471670561,,,,,
dodecyl(trimethyl)ammonium-bromide,CCCCCCCCCCCC[N+](C)(C)C.[Br-],"InChI=1S/C15H34N.BrH/c1-5-6-7-8-9-10-11-12-13-14-15-16(2,3)4;/h5-15H2,1-4H3;1H/q+1;/p-1",XJWSAJYUBXQQDR-UHFFFAOYSA-M,307.187462188,0.014,1.85387196432176,35.8,0.00000342,0.49,36.17,2.26872662746815,0.10344381877018,25,cationic,"['10.1016/j.colsurfa.2014.06.019', '10.1021/acs.jpcb.1c05264']","['10.1016/j.colsurfa.2014.06.019', '10.1016/j.ces.2022.118208']",10.1002/9781118228920,10.1016/j.jcis.2014.02.017,10.1016/j.colsurfa.2014.06.019,calculated,10.1016/j.colsurfa.2014.06.019,calculated,calculated
dodecyl(trimethyl)azanium-chloride,CCCCCCCCCCCC[N+](C)(C)C.[Cl-],"InChI=1S/C15H34N.ClH/c1-5-6-7-8-9-10-11-12-13-14-15-16(2,3)4;/h5-15H2,1-4H3;1H/q+1;/p-1",DDXLVDQZPFLQMZ-UHFFFAOYSA-M,263.237977768,0.02,1.69897000433602,40.5,0.00000439,0.38,31.5,2.17,0.00678,25,cationic,"['10.1016/0021-9797(76)90178-8', '10.1002/9781118228920.ch3', '10.1002/9781118228920.ch3']",10.1016/j.ces.2022.118208,,10.1016/j.colsurfa.2012.11.004,10.1002/9781118228920.ch5,10.1002/9781118228920.ch5,,,