IUPAC_name,SMILES,InChI,InChIKey,Molecular_Weight,CMC,pCMC,AW_ST_CMC,Gamma_max,Area_min,Pi_CMC,PC20,C20,Temp_Celsius,Surfactant_Type,Ref_CMC,Ref_AW_ST_CMC,SubRef_CMC,SubRef_AW_ST_CMC,Ref_Gamma_max,Ref_Pi_CMC,Ref_Area_min,Ref_PC20,Ref_C20
Arginine-O-octylesterdihydrochloride,CCCCCCCCCCOC(=O)C([N+])CCCNC([N+])N.[Cl-].[Cl-],"InChI=1S/C16H32N4O2.2ClH/c1-2-3-4-5-6-7-8-9-13-22-15(21)14(17)11-10-12-20-16(18)19;;/h14,16,20H,2-13,18H2,1H3;2*1H/q+2;;/p-2",BLEBCWNSVXXTMQ-UHFFFAOYSA-L,382.190231624,0.013,1.88605664769316,34,0.00000154,0.72,38,2.56850154810714,0.0766503162246099,25,gemini cationic,10.1016/j.crci.2004.02.009,10.1016/j.ces.2022.118208,,10.1016/j.crci.2004.02.009,10.1016/j.crci.2004.02.009,10.1016/j.crci.2004.02.009,10.1016/j.crci.2004.02.009,calculated,calculated
"N,N-dimethyl-N,N-bis[2-decaneoxycarbonyl)ethyl]ammoniumbromides",CCCCCCCCCCOC(=O)CC[N+](C)(C)CCC(=O)OCCCCCCCCCC.[Br-],"InChI=1S/C28H56NO4.BrH/c1-5-7-9-11-13-15-17-19-25-32-27(30)21-23-29(3,4)24-22-28(31)33-26-20-18-16-14-12-10-8-6-2;/h5-26H2,1-4H3;1H/q+1;/p-1",SJZLOHMQBDZNID-UHFFFAOYSA-M,549.339271372,0.005,2.30102999566398,35,0.00000353,0.47,37,2.72280543222767,0.0656902062570759,25,cationic,10.1016/j.colsurfa.2015.01.050,10.1016/j.ces.2022.118208,,10.1016/j.colsurfa.2015.01.050,,,10.1016/j.colsurfa.2015.01.050,calculated,calculated
sodium-2-decoxy-2-oxoethanesulfonate,CCCCCCCCCCOC(=O)CS(=O)(=O)[O-].[Na+],"InChI=1S/C12H24O5S.Na/c1-2-3-4-5-6-7-8-9-10-17-12(13)11-18(14,15)16;/h2-11H2,1H3,(H,14,15,16);/q;+1/p-1",NCGPNILRARPETC-UHFFFAOYSA-M,302.116389116,0.022,1.65757731917779,,,,,,,25,anionic,10.1021/acs.jpcb.1c05264,,10.1002/9781118228920,,,,,,
,CCCCCCCCCCOC(=O)C[N+](C)(C)CCCN=Cc1ccccc1O.[Cl-],"InChI=1S/C24H40N2O3.ClH/c1-4-5-6-7-8-9-10-13-19-29-24(28)21-26(2,3)18-14-17-25-20-22-15-11-12-16-23(22)27;/h11-12,15-16,20H,4-10,13-14,17-19,21H2,1-3H3;1H",AHGLHPATMDQWQI-UHFFFAOYSA-N,440.280570852,,,35.9,,,,,,,cationic,,10.1016/j.ces.2022.118208,,10.1039/C5RA21626E,,,,,
"2-(decyloxy)-N-(2-(2-hydroxyethoxy)ethyl)-N,N-dimethyl-2-oxoethanaminiumchloride",CCCCCCCCCCOC(=O)C[N+](C)(C)CCOCCO.[Cl-],"InChI=1S/C18H38NO4.ClH/c1-4-5-6-7-8-9-10-11-14-23-18(21)17-19(2,3)12-15-22-16-13-20;/h20H,4-17H2,1-3H3;1H/q+1;/p-1",XJZXKQJCZACFPN-UHFFFAOYSA-M,367.248936376,0.00196,2.70774392864352,31.4,0.00000113,1.46,40.6,4.48,0.0000328,20,cationic,10.1016/j.molliq.2017.12.105,10.1016/j.ces.2022.118208,,10.1016/j.molliq.2017.12.105,10.1016/j.molliq.2017.12.105,10.1016/j.molliq.2017.12.105,10.1016/j.molliq.2017.12.105,10.1016/j.molliq.2017.12.105,
,CCCCCCCCCCOC(=O)C[N+](CC)(CC)c1ccc(C=NCCN=Cc2ccc([N+](CC)(CC)CC(=O)OCCCCCCCC)cc2)cc1.[Cl-].[Cl-],"InChI=1S/C46H76N4O4.2ClH/c1-7-13-15-17-19-20-22-24-36-54-46(52)40-50(11-5,12-6)44-31-27-42(28-32-44)38-48-34-33-47-37-41-25-29-43(30-26-41)49(9-3,10-4)39-45(51)53-35-23-21-18-16-14-8-2;;/h25-32,37-38H,7-24,33-36,39-40H2,1-6H3;2*1H/q+2;;/p-2",NDZIZSLADXSFAM-UHFFFAOYSA-L,818.524362272,0.00589,2.2298847052129,39.9,0.00000081,2.076,32.1,3.51004152057517,0.000309,25,gemini cationic,10.1080/01932690903269784,10.1016/j.ces.2022.118208,,10.1201/9780203911518,10.1080/01932690903269784,10.1080/01932690903269784,10.1080/01932690903269784,,10.1080/01932690903269784
,CCCCCCCCCCOC(=O)C[N+](CC)(CC)c1ccc(C=NCCN=Cc2ccc([N+](CC)(CC)CC(=O)OCCCCCCCCCC)cc2)cc1.[Cl-].[Cl-],"InChI=1S/C48H80N4O4.2ClH/c1-7-13-15-17-19-21-23-25-37-55-47(53)41-51(9-3,10-4)45-31-27-43(28-32-45)39-49-35-36-50-40-44-29-33-46(34-30-44)52(11-5,12-6)42-48(54)56-38-26-24-22-20-18-16-14-8-2;;/h27-34,39-40H,7-26,35-38,41-42H2,1-6H3;2*1H/q+2;;/p-2",XWCFRRGTQZNMFZ-UHFFFAOYSA-L,846.5556624,0.00282,2.54975089168064,37.6,0.00000105,1.582,34.25,3.73048705578208,0.000186,25,gemini cationic,10.1080/01932690903269784,10.1016/j.ces.2022.118208,,10.1080/01932690903269784,10.1080/01932690903269784,10.1080/01932690903269784,10.1080/01932690903269784,,10.1080/01932690903269784
Decyl-β-D-maltoside,CCCCCCCCCCOC1CC(O)C(OC2OC(CO)C(O)C(O)C2O)C(CO)O1,"InChI=1S/C22H42O10/c1-2-3-4-5-6-7-8-9-10-29-17-11-14(25)21(16(13-24)30-17)32-22-20(28)19(27)18(26)15(12-23)31-22/h14-28H,2-13H2,1H3",SQTZDOSDQZBWKZ-UHFFFAOYSA-N,466.277797544,0.002,2.69897000433602,35.6,0.00000297,0.56,36.4,3.66618820887336,0.0255737662475426,25,sugar-based non-ionic,10.1021/acs.iecr.6b02890,10.1016/j.jcis.2018.01.051,10.1016/j.molliq.2018.01.037,,10.1021/la980519x,10.1021/la980519x,10.1021/la980519x,calculated,calculated
,CCCCCCCCCCOC1[CH][C@H](O)[C@@H](O)C(O)O1,"InChI=1S/C15H29O5/c1-2-3-4-5-6-7-8-9-10-19-13-11-12(16)14(17)15(18)20-13/h11-18H,2-10H2,1H3/t12-,13?,14+,15?/m0/s1",LXZJYBSPWFVSPM-FGZQJIAISA-N,289.201499028,0.0008091,3.09199779882745,,,,,,,25,non-ionic,10.1021/ie4016232,,,,,,,,
"4,4-bis(decyloxymethyl)-N,N,N,N-,,N',N'-hexamethyl-1,7-heptanediammoniumdiiodide",CCCCCCCCCCOCC(CCC[N+](C)(C)C)(CCC[N+](C)(C)C)COCCCCCCCCCC.[I-].[I-],"InChI=1S/C35H76N2O2.2HI/c1-9-11-13-15-17-19-21-23-31-38-33-35(27-25-29-36(3,4)5,28-26-30-37(6,7)8)34-39-32-24-22-20-18-16-14-12-10-2;;/h9-34H2,1-8H3;2*1H/q+2;;/p-2",WCRXRGDYOUZMJA-UHFFFAOYSA-L,810.399625672,0.00027,3.56863623584101,32,0.00000166,1,40,4.55,0.0000282,25,gemini cationic,10.1016/j.jcis.2014.02.017,10.1016/j.ces.2022.118208,,10.1016/j.jcis.2014.02.017,10.1016/j.jcis.2014.02.017,10.1016/j.jcis.2014.02.017,10.1016/j.jcis.2014.02.017,10.1016/j.jcis.2014.02.017,10.1016/j.jcis.2014.02.017
"3,3-bis(decyloxymethyl)-N,N,N,N',N',N'-hexamethyl-1,5-pentanediammoniumdiiodide",CCCCCCCCCCOCC(CC[N+](C)(C)C)(CC[N+](C)(C)C)COCCCCCCCCCC.[I-].[I-],"InChI=1S/C33H72N2O2.2HI/c1-9-11-13-15-17-19-21-23-29-36-31-33(25-27-34(3,4)5,26-28-35(6,7)8)32-37-30-24-22-20-18-16-14-12-10-2;;/h9-32H2,1-8H3;2*1H/q+2;;/p-2",QQDWEBRVVNOULD-UHFFFAOYSA-L,782.368325544,0.000265,3.57675412606319,32.2,0.00000138,1.2,39.8,4.46,0.0000347,25,gemini cationic,10.1016/j.jcis.2014.02.017,10.1016/j.ces.2022.118208,,10.1016/j.jcis.2014.02.017,10.1016/j.jcis.2014.02.017,10.1016/j.jcis.2014.02.017,10.1016/j.jcis.2014.02.017,10.1016/j.jcis.2014.02.017,10.1016/j.jcis.2014.02.017
"6,6-bis(decyloxymethyl)-N,N,N,N',N',N'-hexamethyl-4,8-dioxa-1,11-undecanediammoniumdiiodide",CCCCCCCCCCOCC(COCCCCCCCCCC)(COCCC[N+](C)(C)C)COCCC[N+](C)(C)C.[I-].[I-],"InChI=1S/C37H80N2O4.2HI/c1-9-11-13-15-17-19-21-23-29-40-33-37(35-42-31-25-27-38(3,4)5,36-43-32-26-28-39(6,7)8)34-41-30-24-22-20-18-16-14-12-10-2;;/h9-36H2,1-8H3;2*1H/q+2;;/p-2",GXAWEKIRGJHVFV-UHFFFAOYSA-L,870.42075504,0.000166,3.77989191195995,35.2,0.00000111,1.5,36.8,4.52,0.0000302,25,gemini cationic,10.1016/j.jcis.2014.02.017,10.1016/j.ces.2022.118208,,10.1016/j.jcis.2014.02.017,10.1016/j.jcis.2014.02.017,10.1016/j.jcis.2014.02.017,10.1016/j.jcis.2014.02.017,10.1016/j.jcis.2014.02.017,10.1016/j.jcis.2014.02.017
"5,5-bis(decyloxymethyl)-N,N,N,N',N',N'-hexamethyl-3,7-dioxa-1,9-nonanediammoniumdiiodide",CCCCCCCCCCOCC(COCCCCCCCCCC)(COCC[N+](C)(C)C)COCC[N+](C)(C)C.[I-].[I-],"InChI=1S/C35H76N2O4.2HI/c1-9-11-13-15-17-19-21-23-27-38-31-35(33-40-29-25-36(3,4)5,34-41-30-26-37(6,7)8)32-39-28-24-22-20-18-16-14-12-10-2;;/h9-34H2,1-8H3;2*1H/q+2;;/p-2",JYGAKQLRXHSAKW-UHFFFAOYSA-L,842.389454912,0.000254,3.59516628338006,32.2,0.00000166,1,39.8,4.57,0.0000269,25,gemini cationic,10.1016/j.jcis.2014.02.017,10.1016/j.ces.2022.118208,,10.1016/j.jcis.2014.02.017,10.1016/j.jcis.2014.02.017,10.1016/j.jcis.2014.02.017,10.1016/j.jcis.2014.02.017,10.1016/j.jcis.2014.02.017,10.1016/j.jcis.2014.02.017
"2,2-bis(decyloxymethyl)-N,N,N,N',N',N'-hexamethyl-1,3-propanediammoniumdiiodide",CCCCCCCCCCOCC(COCCCCCCCCCC)(C[N+](C)(C)C)C[N+](C)(C)C.[I-].[I-],"InChI=1S/C31H68N2O2.2HI/c1-9-11-13-15-17-19-21-23-25-34-29-31(27-32(3,4)5,28-33(6,7)8)30-35-26-24-22-20-18-16-14-12-10-2;;/h9-30H2,1-8H3;2*1H/q+2;;/p-2",PJDLZJNLZJCGRG-UHFFFAOYSA-L,754.337025416,0.000208,3.68193666503724,39.6,0.00000104,1.6,32.4,4.46,0.0000347,25,gemini cationic,10.1016/j.jcis.2014.02.017,10.1016/j.ces.2022.118208,,10.1016/j.jcis.2014.02.017,10.1016/j.jcis.2014.02.017,10.1016/j.jcis.2014.02.017,10.1016/j.jcis.2014.02.017,10.1016/j.jcis.2014.02.017,10.1016/j.jcis.2014.02.017
2-[2-(2-decoxyethoxy)ethoxy]ethanol,CCCCCCCCCCOCCOCCOCCO,"InChI=1S/C16H34O4/c1-2-3-4-5-6-7-8-9-11-18-13-15-20-16-14-19-12-10-17/h17H,2-16H2,1H3",UKODLHVFJRCQME-UHFFFAOYSA-N,290.245709568,0.0006,3.22184874961636,,,,,,,25,sugar-based non-ionic,10.1021/acs.jpcb.1c05264,,10.1002/9781118228920,,,,,,
2-[2-[2-(2-decoxyethoxy)ethoxy]ethoxy]ethanol,CCCCCCCCCCOCCOCCOCCOCCO,"InChI=1S/C18H38O5/c1-2-3-4-5-6-7-8-9-11-20-13-15-22-17-18-23-16-14-21-12-10-19/h19H,2-18H2,1H3",ASMWIUUCZFNLHL-UHFFFAOYSA-N,334.271924316,0.00068,3.16749108729376,,,,,,,25,non-ionic,10.1021/acs.jpcb.1c05264,,10.1002/9781118228920,,,,,,
2-[2-[2-[2-(2-decoxyethoxy)ethoxy]ethoxy]ethoxy]ethanol,CCCCCCCCCCOCCOCCOCCOCCOCCO,"InChI=1S/C20H42O6/c1-2-3-4-5-6-7-8-9-11-22-13-15-24-17-19-26-20-18-25-16-14-23-12-10-21/h21H,2-20H2,1H3",QAXPOSPGRHYIHE-UHFFFAOYSA-N,378.298139064,0.00076,3.11918640771921,,0.00000311,0.53,,,,25,non-ionic,10.1021/acs.jpcb.1c05264,,10.1002/9781118228920,,10.1006/jcis.1997.4778,,,,
2-(2-(2-(2-(2-(2-decyloxy-ethoxy)-ethoxy)-ethoxy)-ethoxy)-ethoxy)-ethanol,CCCCCCCCCCOCCOCCOCCOCCOCCOCCO,"InChI=1S/C22H46O7/c1-2-3-4-5-6-7-8-9-11-24-13-15-26-17-19-28-21-22-29-20-18-27-16-14-25-12-10-23/h23H,2-22H2,1H3",GLGQRQQFWLTGES-UHFFFAOYSA-N,422.324353812,0.0009,3.04575749056068,29.8,,,42.2,,,25,non-ionic,10.1021/acs.jpcb.1c05264,10.1016/j.ces.2022.118208,10.1002/9781118228920,10.1002/0471670561,,,,,
,CCCCCCCCCCOCCOCCOCCOCCOCCOCCOCCOCCO,"InChI=1S/C26H54O9/c1-2-3-4-5-6-7-8-9-11-28-13-15-30-17-19-32-21-23-34-25-26-35-24-22-33-20-18-31-16-14-29-12-10-27/h27H,2-26H2,1H3",UJMHIOBAHVUDGS-UHFFFAOYSA-N,510.376783308,,,35.4,,,,,,,non-ionic,,10.1016/j.ces.2022.118208,,10.1002/0471670561,,,,,
2-[2-[2-[2-[2-[2-[2-[2-(2-decoxyethoxy)ethoxy]ethoxy]ethoxy]ethoxy]ethoxy]ethoxy]ethoxy]ethanol,CCCCCCCCCCOCCOCCOCCOCCOCCOCCOCCOCCOCCO,"InChI=1S/C28H58O10/c1-2-3-4-5-6-7-8-9-11-30-13-15-32-17-19-34-21-23-36-25-27-38-28-26-37-24-22-35-20-18-33-16-14-31-12-10-29/h29H,2-28H2,1H3",MEPDRUVBZDYVEU-UHFFFAOYSA-N,554.402998056,0.0013,2.88605664769316,35.9,0.00000396,0.42,36.1,3.6,0.00025,25,sugar-based non-ionic,10.1021/acs.jpcb.1c05264,,10.1002/9781118228920,10.1006/jcis.2001.7704,10.1006/jcis.2001.7704,10.1006/jcis.2001.7704,10.1006/jcis.2001.7704,10.1006/jcis.2001.7704,
,CCCCCCCCCCOCCOCC[N+](C)(C)C.[Br-],"InChI=1S/C17H38NO2.BrH/c1-5-6-7-8-9-10-11-12-14-19-16-17-20-15-13-18(2,3)4;/h5-17H2,1-4H3;1H/q+1;/p-1",OIKHNPKOAIBUHX-UHFFFAOYSA-M,367.208591556,0.0155,1.80966830182971,44,,0.91,28.5,,,25,cationic,10.1016/0927-7757(95)03093-S,10.1016/j.ces.2022.118208,,10.1007/BF01550555,,10.1016/0927-7757(95)03093-S,10.1016/0927-7757(95)03093-S,,
,CCCCCCCCCCOCCOCC[N+](C)(C)C.[Cl-],"InChI=1S/C17H38NO2.ClH/c1-5-6-7-8-9-10-11-12-14-19-16-17-20-15-13-18(2,3)4;/h5-17H2,1-4H3;1H/q+1;/p-1",KXYMTPJDELATFD-UHFFFAOYSA-M,323.259107136,0.023,1.63827216398241,,,,,,,25,cationic,10.1016/0021-9797(76)90178-8,,,,,,,,
,CCCCCCCCCCOCCOCC[N+]1CCCCC1.[Cl-],"InChI=1S/C19H39NO2.ClH/c1-2-3-4-5-6-7-8-12-16-21-18-19-22-17-15-20-13-10-9-11-14-20;/h2-19H2,1H3;1H/q+1;/p-1",XNOKDWAEXPDLBG-UHFFFAOYSA-M,348.266932168,0.021,1.67778070526608,,,,,,,25,cationic,10.1016/0021-9797(76)90178-8,,,,,,,,
,CCCCCCCCCCOCCS(=O)(=O)[O-].[Na+],"InChI=1S/C12H26O4S.Na/c1-2-3-4-5-6-7-8-9-10-16-11-12-17(13,14)15;/h2-12H2,1H3,(H,13,14,15);/q;+1/p-1",WIGYYDGHAYNESW-UHFFFAOYSA-M,288.13712456,0.01633,1.78701381526333,39.2,0.0000029,0.57,32.8,2.2,0.00628,25,anionic,10.1002/9781118228920.ch3,,,,10.1002/9781118228920.ch5,10.1002/9781118228920.ch5,,,
,CCCCCCCCCCOCC[N+](C)(C)C.[Cl-],"InChI=1S/C15H34NO.ClH/c1-5-6-7-8-9-10-11-12-14-17-15-13-16(2,3)4;/h5-15H2,1-4H3;1H/q+1;/p-1",LWXHFNRBKZEQQY-UHFFFAOYSA-M,279.232892388,0.0306,1.51427857351842,,,,,,,25,cationic,10.1016/0021-9797(76)90178-8,,,,,,,,
,CCCCCCCCCCOCC[N+]1CCCCC1.[Cl-],"InChI=1S/C17H35NO.ClH/c1-2-3-4-5-6-7-8-12-16-19-17-15-18-13-10-9-11-14-18;/h2-17H2,1H3;1H/q+1;/p-1",RMDYHTRQUFIYAE-UHFFFAOYSA-M,304.24071742,0.0256,1.59176003468815,,,,,,,25,cationic,10.1016/0021-9797(76)90178-8,,,,,,,,
,CCCCCCCCCCOOCCOCCOCC,"InChI=1S/C16H34O4/c1-3-5-6-7-8-9-10-11-12-19-20-16-15-18-14-13-17-4-2/h3-16H2,1-2H3",WCQQGOZSTRRWCF-UHFFFAOYSA-N,290.245709568,0.0005998,3.22199353857649,,,,,,,25,non-ionic,10.1021/ie4016232,,,,,,,,
,CCCCCCCCCCOOCCOCCOCCOCC,"InChI=1S/C18H38O5/c1-3-5-6-7-8-9-10-11-12-22-23-18-17-21-16-15-20-14-13-19-4-2/h3-18H2,1-2H3",UAAPLLPWTYZPCY-UHFFFAOYSA-N,334.271924316,0.0006808,3.16698045292347,,,,,,,25,non-ionic,10.1021/ie4016232,,,,,,,,
,CCCCCCCCCCOOCCOCCOCCOCCOCC,"InChI=1S/C20H42O6/c1-3-5-6-7-8-9-10-11-12-25-26-20-19-24-18-17-23-16-15-22-14-13-21-4-2/h3-20H2,1-2H3",UBNYXUFNSSYEQB-UHFFFAOYSA-N,378.298139064,0.0007943,3.10001543745061,,,,,,,25,non-ionic,10.1021/ie4016232,,,,,,,,
,CCCCCCCCCCOOCCOCCOCCOCCOCCOCC,"InChI=1S/C22H46O7/c1-3-5-6-7-8-9-10-11-12-28-29-22-21-27-20-19-26-18-17-25-16-15-24-14-13-23-4-2/h3-22H2,1-2H3",KWZALENJQKZFFS-UHFFFAOYSA-N,422.324353812,0.0008995,3.04599883231843,30,,,42,,,25,non-ionic,10.1021/ie4016232,10.1081/DIS-200054572,,,,,,,
,CCCCCCCCCCOOCCOCCOCCOCCOCCOCCOCC,"InChI=1S/C24H50O8/c1-3-5-6-7-8-9-10-11-12-31-32-24-23-30-22-21-29-20-19-28-18-17-27-16-15-26-14-13-25-4-2/h3-24H2,1-2H3",HQGWVEUVJFRWFU-UHFFFAOYSA-N,466.35056856,0.0009661,3.01497791789047,,,,,,,25,non-ionic,10.1021/ie4016232,,,,,,,,
,CCCCCCCCCCOOCCOCCOCCOCCOCCOCCOCCOCC,"InChI=1S/C26H54O9/c1-3-5-6-7-8-9-10-11-12-34-35-26-25-33-24-23-32-22-21-31-20-19-30-18-17-29-16-15-28-14-13-27-4-2/h3-26H2,1-2H3",DZGIAXPPDMPCFL-UHFFFAOYSA-N,510.376783308,0.001,3,35.6,,,36.4,,,25,non-ionic,10.1021/ie4016232,10.1081/DIS-200054572,,,,,,,
,CCCCCCCCCCOOCCOCCOCCOCCOCCOCCOCCOCCOCC,"InChI=1S/C28H58O10/c1-3-5-6-7-8-9-10-11-12-37-38-28-27-36-26-25-35-24-23-34-22-21-33-20-19-32-18-17-31-16-15-30-14-13-29-4-2/h3-28H2,1-2H3",SYEYJRFMEBEEBS-UHFFFAOYSA-N,554.402998056,0.0013,2.88605664769316,,,,,,,25,non-ionic,10.1021/ie4016232,,,,,,,,
,CCCCCCCCCCOP(=O)([O-])OCC[N+](C)(C)CCCCCCCC,"InChI=1S/C22H48NO4P/c1-5-7-9-11-13-14-16-18-21-26-28(24,25)27-22-20-23(3,4)19-17-15-12-10-8-6-2/h5-22H2,1-4H3",HBLWTIXAXMPDMQ-UHFFFAOYSA-N,421.332095646,0.0001,4,,,,,,,25,gemini zwitterionic,10.1016/j.chemosphere.2011.05.031,,,,,,,,
,CCCCCCCCCCOP(=O)([O-])OCC[N+](C)(C)CCCCCCCCCC,"InChI=1S/C24H52NO4P/c1-5-7-9-11-13-15-17-19-21-25(3,4)22-24-29-30(26,27)28-23-20-18-16-14-12-10-8-6-2/h5-24H2,1-4H3",KRXVLBSWJJJWDK-UHFFFAOYSA-N,449.363395774,1.2998702373886E-05,4.8861,,,,,,,25,gemini zwitterionic,10.1016/j.chemosphere.2011.05.031,,,,,,,,
sodium-decylsulfate,CCCCCCCCCCOS(=O)(=O)[O-].[Na+],"InChI=1S/C10H22O4S.Na/c1-2-3-4-5-6-7-8-9-10-14-15(11,12)13;/h2-10H2,1H3,(H,11,12,13);/q;+1/p-1",XZTJQQLJJCXOLP-UHFFFAOYSA-M,260.105824432,0.03304,1.48095996135166,,0.000000534,3.11,,,,25,anionic,10.1021/ci600462d,,10.1006/jcis.1996.4680,,,,10.1081/DIS-120014014,,
Decyl-β-D-glucoside,CCCCCCCCCCO[C@@H]1O[C@H](CO)[C@@H](O)[C@H](O)[C@H]1O,"InChI=1S/C16H32O6/c1-2-3-4-5-6-7-8-9-10-21-16-15(20)14(19)13(18)12(11-17)22-16/h12-20H,2-11H2,1H3/t12-,13-,14+,15-,16-/m1/s1",JDRSMPFHFNXQRB-IBEHDNSVSA-N,320.219888744,0.002,2.69897000433602,28.5,0.00000405,0.41,43.5,3.71533547536407,0.0243472718349212,25,sugar-based non-ionic,10.1021/acs.iecr.6b02890,10.1016/j.jcis.2018.01.051,10.1016/j.molliq.2018.01.037,,10.1021/la980519x,10.1021/la980519x,10.1021/la980519x,calculated,calculated
Decyl-β-D-galactoside,CCCCCCCCCCO[C@@H]1O[C@H](CO)[C@H](O)[C@H](O)[C@H]1O,"InChI=1S/C16H32O6/c1-2-3-4-5-6-7-8-9-10-21-16-15(20)14(19)13(18)12(11-17)22-16/h12-20H,2-11H2,1H3/t12-,13+,14+,15-,16-/m1/s1",JDRSMPFHFNXQRB-LYYZXLFJSA-N,320.219888744,0.0007,3.15490195998574,28,0.00000313,0.53,43.97,4.49798840936277,0.0111313657830063,25,sugar-based non-ionic,10.1021/acs.iecr.6b02890,10.1016/j.jcis.2018.01.051,10.1016/j.molliq.2018.01.037,,10.1007/BF02541865,calculated,10.1007/BF02541865,calculated,calculated
Decyl-α-D-mannoside,CCCCCCCCCCO[C@H]1O[C@H](CO)[C@@H](O)[C@H](O)[C@@H]1O,"InChI=1S/C16H32O6/c1-2-3-4-5-6-7-8-9-10-21-16-15(20)14(19)13(18)12(11-17)22-16/h12-20H,2-11H2,1H3/t12-,13-,14+,15+,16+/m1/s1",JDRSMPFHFNXQRB-OWYFMNJBSA-N,320.219888744,0.00025,3.60205999132796,28.5,0.00000231,0.53,43.47,5.38399945352001,0.0045894299637782,25,sugar-based non-ionic,10.1021/acs.iecr.6b02890,10.1016/j.jcis.2018.01.051,10.1016/j.molliq.2018.01.037,,10.1007/BF02541865,calculated,10.1007/BF02541865,calculated,calculated
,CCCCCCCCCCOc1ccc(C[n+]2ccn(C)c2)cc1.[Br-],"InChI=1S/C21H33N2O.BrH/c1-3-4-5-6-7-8-9-10-17-24-21-13-11-20(12-14-21)18-23-16-15-22(2)19-23;/h11-16,19H,3-10,17-18H2,1-2H3;1H/q+1;/p-1",SNXRIXBCHFSJKM-UHFFFAOYSA-M,408.177625776,,,39,,,,,,,cationic,,10.1016/j.ces.2022.118208,,10.1002/ejlt.201000437,,,,,
,CCCCCCCCCCOc1ccc(C[n+]2ccn(CCCCCCn3cc[n+](Cc4ccc(OCCCCCCCCCC)cc4)c3)c2)cc1.[Br-].[Br-],"InChI=1S/C46H72N4O2.2BrH/c1-3-5-7-9-11-13-17-21-37-51-45-27-23-43(24-28-45)39-49-35-33-47(41-49)31-19-15-16-20-32-48-34-36-50(42-48)40-44-25-29-46(30-26-44)52-38-22-18-14-12-10-8-6-4-2;;/h23-30,33-36,41-42H,3-22,31-32,37-40H2,1-2H3;2*1H/q+2;;/p-2",ZFGYXBQRZKQFQD-UHFFFAOYSA-L,870.402201744,,,39.8,,,,,,,gemini cationic,,10.1016/j.ces.2022.118208,,10.1002/ejlt.201000437,,,,,
,CCCCCCCCCCOc1ccc(C[n+]2ccn(CCCn3cc[n+](Cc4ccc(OCCCCCCCCCC)cc4)c3)c2)cc1.[Br-].[Br-],"InChI=1S/C43H66N4O2.2BrH/c1-3-5-7-9-11-13-15-17-34-48-42-24-20-40(21-25-42)36-46-32-30-44(38-46)28-19-29-45-31-33-47(39-45)37-41-22-26-43(27-23-41)49-35-18-16-14-12-10-8-6-4-2;;/h20-27,30-33,38-39H,3-19,28-29,34-37H2,1-2H3;2*1H/q+2;;/p-2",UCYKSBMEHHNAOE-UHFFFAOYSA-L,828.355251552,,,37.2,,,,,,,gemini cationic,,10.1016/j.ces.2022.118208,,10.1002/ejlt.201000437,,,,,
"N,N,N′,N′-tetramethyldecylenediaminewith2-bromo-N-(4-(hexyloxy)phenyl)acetamide",CCCCCCCCCCOc1ccc(NC(=O)C[N+](C)(C)CCCCCC[N+](C)(C)CC(=O)Nc2ccc(OCCCCCCCCCC)cc2)cc1.[Br-].[Br-],"InChI=1S/C46H78N4O4.2BrH/c1-7-9-11-13-15-17-21-25-37-53-43-31-27-41(28-32-43)47-45(51)39-49(3,4)35-23-19-20-24-36-50(5,6)40-46(52)48-42-29-33-44(34-30-42)54-38-26-22-18-16-14-12-10-8-2;;/h27-34H,7-26,35-40H2,1-6H3;2*1H",IGNFRRIXMZTSSQ-UHFFFAOYSA-N,910.45463124,0.0000109,4.96257350205938,45,0.00000122,1.36,27,5.02,0.00000948,25,gemini cationic,10.1016/j.molliq.2017.06.008,"['10.1016/j.ces.2022.118208', '10.1016/j.molliq.2017.06.008', '10.1201/9780203911518']",10.3390/pr7080502,10.1016/j.molliq.2017.06.008,10.1016/j.molliq.2017.06.008,,10.1016/j.molliq.2017.06.008,10.1016/j.molliq.2017.06.008,
"N,N,N′,N′-tetramethyldecylenediaminewith2-bromo-N-(4-(butyloxy)phenyl)acetamide",CCCCCCCCCCOc1ccc(NC(=O)C[N+](C)(C)CCCC[N+](C)(C)CC(=O)Nc2ccc(OCCCCCCCCCC)cc2)cc1.[Br-].[Br-],"InChI=1S/C44H74N4O4.2BrH/c1-7-9-11-13-15-17-19-23-35-51-41-29-25-39(26-30-41)45-43(49)37-47(3,4)33-21-22-34-48(5,6)38-44(50)46-40-27-31-42(32-28-40)52-36-24-20-18-16-14-12-10-8-2;;/h25-32H,7-24,33-38H2,1-6H3;2*1H",JBCJYDSUMJPTPY-UHFFFAOYSA-N,882.423331112,0.0000207,4.68402965454308,41.6,0.00000106,1.57,30.4,5.31,0.00000489,25,gemini cationic,10.1016/j.molliq.2017.06.008,"['10.1016/j.ces.2022.118208', '10.1016/j.molliq.2017.06.008', '10.1201/9780203911518']",10.3390/pr7080502,10.1016/j.molliq.2017.06.008,10.1016/j.molliq.2017.06.008,,10.1016/j.molliq.2017.06.008,10.1016/j.molliq.2017.06.008,
"N,N,N′,N′-tetramethyldecylenediaminewith2-bromo-N-(4-(ethyloxy)phenyl)acetamide",CCCCCCCCCCOc1ccc(NC(=O)C[N+](C)(C)CC[N+](C)(C)CC(=O)Nc2ccc(OCCCCCCCCCC)cc2)cc1.[Br-].[Br-],"InChI=1S/C42H70N4O4.2BrH/c1-7-9-11-13-15-17-19-21-33-49-39-27-23-37(24-28-39)43-41(47)35-45(3,4)31-32-46(5,6)36-42(48)44-38-25-29-40(30-26-38)50-34-22-20-18-16-14-12-10-8-2;;/h23-30H,7-22,31-36H2,1-6H3;2*1H",WXSGKVVLFNAKPW-UHFFFAOYSA-N,854.392030984,0.0000407,4.39040559077478,33.1,0.00000113,1.47,38.9,5.53,0.0000295,25,gemini cationic,10.1016/j.molliq.2017.06.008,"['10.1016/j.ces.2022.118208', '10.1016/j.molliq.2017.06.008', '10.1201/9780203911518']",10.3390/pr7080502,10.1016/j.molliq.2017.06.008,10.1016/j.molliq.2017.06.008,,10.1016/j.molliq.2017.06.008,10.1016/j.molliq.2017.06.008,