IUPAC_name,SMILES,InChI,InChIKey,Molecular_Weight,CMC,pCMC,AW_ST_CMC,Gamma_max,Area_min,Pi_CMC,PC20,C20,Temp_Celsius,Surfactant_Type,Ref_CMC,Ref_AW_ST_CMC,SubRef_CMC,SubRef_AW_ST_CMC,Ref_Gamma_max,Ref_Pi_CMC,Ref_Area_min,Ref_PC20,Ref_C20
"1,2-bis(dodecyldimethylammonio)ethanedibromide",CCCCCCCCCCCC[N+](C)(C)CC[N+](C)(C)CCCCCCCCCCCC.[Br-].[Br-],"InChI=1S/C30H66N2.2BrH/c1-7-9-11-13-15-17-19-21-23-25-27-31(3,4)29-30-32(5,6)28-26-24-22-20-18-16-14-12-10-8-2;;/h7-30H2,1-6H3;2*1H/q+2;;/p-2",XJTQVDIWFDTGMO-UHFFFAOYSA-L,612.359274312,0.000800018444855,3.09690000000005,31.5,0.0000021,0.72,32,3.66686787053098,0.0255563906446174,25,gemini cationic,"['10.1016/j.chemosphere.2011.05.031', '10.1016/j.jcis.2003.12.021', '10.1016/j.colsurfa.2011.01.007', '10.1016/j.jcis.2003.12.021', '10.1016/j.colsurfa.2011.01.007']",10.1016/j.ces.2022.118208,,10.1016/j.jcis.2003.12.021,"['10.1016/j.jcis.2003.12.021', '10.1016/j.colsurfa.2011.01.007']",,"['10.1016/j.jcis.2003.12.021', '10.1016/j.colsurfa.2011.01.007']",calculated,calculated
"1,2,3-tris(dodecyldimethylammonio)ethanetribromide",CCCCCCCCCCCC[N+](C)(C)CC[N+](C)(CCCCCCCCCCCC)CC[N+](C)(C)CCCCCCCCCCCC.[Br-].[Br-].[Br-],"InChI=1S/C45H98N3.3BrH/c1-9-12-15-18-21-24-27-30-33-36-39-46(4,5)42-44-48(8,41-38-35-32-29-26-23-20-17-14-11-3)45-43-47(6,7)40-37-34-31-28-25-22-19-16-13-10-2;;;/h9-45H2,1-8H3;3*1H/q+3;;;/p-3",AVYJEXUVCMVQKI-UHFFFAOYSA-K,917.531086436,0.000065,4.18708664335714,36.4,0.00000111,1.49,35.6,4.80251668418092,0.0082090614153304,25,gemini cationic,10.1016/j.jcis.2003.12.021,10.1016/j.ces.2022.118208,,10.1016/j.jcis.2003.12.021,10.1016/j.jcis.2003.12.021,,10.1016/j.jcis.2003.12.021,calculated,calculated
"N,N-dimethyl-N-dodecyl-N-(m-methoxybenzyl)ammoniumchloride",CCCCCCCCCCCC[N+](C)(C)Cc1cccc(OC)c1.[Cl-],"InChI=1S/C22H40NO.ClH/c1-5-6-7-8-9-10-11-12-13-14-18-23(2,3)20-21-16-15-17-22(19-21)24-4;/h15-17,19H,5-14,18,20H2,1-4H3;1H/q+1;/p-1",KWNNSUDYIQSHPX-UHFFFAOYSA-M,369.27984258,0.0046,2.33724216831843,40.7,0.00000214,0.78,31.3,2.82,0.00151,25,cationic,10.1039/C4RA07363K,10.1016/j.ces.2022.118208,,10.1039/C4RA07363K,10.1039/C4RA07363K,,10.1039/C4RA07363K,10.1039/C4RA07363K,
"N,N-dimethyl-N-dodecyl-Nbenzylammoniumchloride",CCCCCCCCCCCC[N+](C)(C)Cc1ccccc1.[Cl-],"InChI=1S/C21H38N.ClH/c1-4-5-6-7-8-9-10-11-12-16-19-22(2,3)20-21-17-14-13-15-18-21;/h13-15,17-18H,4-12,16,19-20H2,1-3H3;1H/q+1;/p-1",JBIROUFYLSSYDX-UHFFFAOYSA-M,339.269277896,0.0088,2.05551732784983,38,0.00000164,1.01,34,2.85,0.00141,25,cationic,"['10.1039/C4RA07363K', '10.1021/acs.jpcb.1c05264', '10.1039/C4RA07363K']",10.1016/j.ces.2022.118208,10.1002/9781118228920,10.1039/C4RA07363K,10.1039/C4RA07363K,,10.1039/C4RA07363K,10.1039/C4RA07363K,
"N-dodecyl–N,N-dimethyl-N-(o-hydroxymethyl)benzylammoniumchloride",CCCCCCCCCCCC[N+](C)(C)Cc1ccccc1CO.[Cl-],"InChI=1S/C22H40NO.ClH/c1-4-5-6-7-8-9-10-11-12-15-18-23(2,3)19-21-16-13-14-17-22(21)20-24;/h13-14,16-17,24H,4-12,15,18-20H2,1-3H3;1H/q+1;/p-1",AUGWTLNJLHJJCE-UHFFFAOYSA-M,369.27984258,0.00839,2.0762380391713,42,0.00000219,0.76,30,2.51,0.00313,25,cationic,10.1007/s11743-015-1706-6,10.1016/j.ces.2022.118208,,10.1007/s11743-015-1706-6,10.1007/s11743-015-1706-6,,10.1007/s11743-015-1706-6,10.1007/s11743-015-1706-6,
"N’‑DodecylN’,N’dimethyl‑4‑piperidino‑4‑oxobutanoylhydraziniumiodide",CCCCCCCCCCCC[N+](C)(C)NC(=O)CCC(=O)N1CCCCC1.[I-],"InChI=1S/C23H45N3O2.HI/c1-4-5-6-7-8-9-10-11-12-16-21-26(2,3)24-22(27)17-18-23(28)25-19-14-13-15-20-25;/h4-21H2,1-3H3;1H",LNGINHYJBALKHQ-UHFFFAOYSA-N,523.263475712,0.0004,3.39794000867204,38.9,0.00000198,0.84,32.88,3.67,0.000214,25,cationic,10.1007/s13738-021-02247-3,10.1016/j.ces.2022.118208,,10.1007/s13738-021-02247-3,10.1007/s13738-021-02247-3,10.1007/s13738-021-02247-3,10.1007/s13738-021-02247-3,10.1007/s13738-021-02247-3,10.1007/s13738-021-02247-3
"N’‑DodecylN’,N’dimethyl‑4‑morpholino‑4‑oxobutanoylhydraziniumiodide",CCCCCCCCCCCC[N+](C)(C)NC(=O)CCC(=O)N1CCOCC1.[I-],"InChI=1S/C22H43N3O3.HI/c1-4-5-6-7-8-9-10-11-12-13-18-25(2,3)23-21(26)14-15-22(27)24-16-19-28-20-17-24;/h4-20H2,1-3H3;1H",IQOYDWMZHLJUFP-UHFFFAOYSA-N,525.242740268,0.00089,3.05060999335509,40.2,0.00000187,0.89,31.58,3.52,0.000302,25,cationic,10.1007/s13738-021-02247-3,10.1016/j.ces.2022.118208,,10.1007/s13738-021-02247-3,10.1007/s13738-021-02247-3,10.1007/s13738-021-02247-3,10.1007/s13738-021-02247-3,10.1007/s13738-021-02247-3,10.1007/s13738-021-02247-3
"N,N-dimethyldodecan-1-aminoxide",CCCCCCCCCCCC[N+](C)(C)[O-],"InChI=1S/C14H31NO/c1-4-5-6-7-8-9-10-11-12-13-14-15(2,3)16/h4-14H2,1-3H3",SYELZBGXAIXKHU-UHFFFAOYSA-N,229.240564612,0.0021,2.67778070526608,,,,,,,27,zwitterionic,10.1002/9781118228920.ch3,,,,,,,,
"(E)-4-(((1,5-dimethyl-3-oxo-2-phenyl-2,3-dihydro-1H-pyrazol-4-yl)imino)methyl)-N-dodecyl-N,N-dimethylbenzenaminiumbromide",CCCCCCCCCCCC[N+](C)(C)c1ccc(C=Nc2c(C)n(C)n(-c3ccccc3)c2=O)cc1.[Br-],"InChI=1S/C32H47N4O.BrH/c1-6-7-8-9-10-11-12-13-14-18-25-36(4,5)30-23-21-28(22-24-30)26-33-31-27(2)34(3)35(32(31)37)29-19-16-15-17-20-29;/h15-17,19-24,26H,6-14,18,25H2,1-5H3;1H/q+1;/p-1",JBBVVDLTLIJZOU-UHFFFAOYSA-M,582.293324224,0.000408,3.38933983691012,39,0.00000092,0.18,33,4.8,0.0000158,20,cationic,10.1016/j.ejpe.2017.05.006,10.1016/j.ces.2022.118208,,10.1016/j.ejpe.2017.05.006,10.1016/j.ejpe.2017.05.006,10.1016/j.ejpe.2017.05.006,10.1016/j.ejpe.2017.05.006,10.1016/j.ejpe.2017.05.006,
N[3-(gluconamide)-propyl]-N-dodecylammoniumbromide,CCCCCCCCCCCC[N+](C)(CCO)CCCNC(=O)C(O)C(O)C(O)C(O)CO.[Br-],"InChI=1S/C24H50N2O7.BrH/c1-3-4-5-6-7-8-9-10-11-12-15-26(2,17-18-27)16-13-14-25-24(33)23(32)22(31)21(30)20(29)19-28;/h20-23,27-32H,3-19H2,1-2H3;1H",KYDDXSTZBMTTPQ-UHFFFAOYSA-N,558.287964072,0.00167,2.77728352885242,29.6,0.00000213,0.72,42.4,3.69,0.000201,25,cationic,10.1016/j.colsurfa.2014.05.042,10.1016/j.ces.2022.118208,,10.1016/j.colsurfa.2014.05.042,10.1016/j.colsurfa.2014.05.042,,10.1016/j.colsurfa.2014.05.042,10.1016/j.colsurfa.2014.05.042,
Dodecylmethylisopropylolammoniumiodide,CCCCCCCCCCCC[N+](C)CC(C)O.[I-],"InChI=1S/C16H35NO.HI/c1-4-5-6-7-8-9-10-11-12-13-14-17(3)15-16(2)18;/h16,18H,4-15H2,1-3H3;1H/q+1;/p-1",YHAHBOHDFULFHA-UHFFFAOYSA-M,384.17633774,0.0000026,5.58502665202918,28.1,0.00000255,0.65,43.9,3.39,0.000407,25,cationic,10.1007/s11743-015-1762-y,10.1016/j.ces.2022.118208,,10.1007/s11743-015-1762-y,,10.1007/s11743-015-1762-y,10.1007/s11743-015-1762-y,,
"N,N′-((Ethane-1,2-diylbis(azanediyl))bis(2-oxoethane-2,1-diyl))-bis(N,N-diethyldod-ecan-1-aminium)Dichloride",CCCCCCCCCCCC[N+](CC)(CC)CC(=O)NCCNC(=O)C[N+](CC)(CC)CCCCCCCCCCCC.[Cl-].[Cl-],"InChI=1S/C38H78N4O2.2ClH/c1-7-13-15-17-19-21-23-25-27-29-33-41(9-3,10-4)35-37(43)39-31-32-40-38(44)36-42(11-5,12-6)34-30-28-26-24-22-20-18-16-14-8-2;;/h7-36H2,1-6H3;2*1H",DNQBJQSULQOISU-UHFFFAOYSA-N,694.56583316,0.00105,2.97881070093006,46.1,0.00000084,1.98,25.9,3.4,0.0004,25,gemini cationic,10.1021/la3011212,10.1016/j.ces.2022.118208,,10.1021/la3011212,10.1021/la3011212,,10.1021/la3011212,,10.1021/la3011212
"2,2'-[ethane1,2-diylbis(oxy)]bis(N-dodecyl-N,N-diethyl-2-oxoethanaminium)-dibromide",CCCCCCCCCCCC[N+](CC)(CC)CC(=O)OCCOC(=O)C[N+](CC)(CC)CCCCCCCCCCCC.[Br-].[Br-],"InChI=1S/C38H78N2O4.2BrH/c1-7-13-15-17-19-21-23-25-27-29-31-39(9-3,10-4)35-37(41)43-33-34-44-38(42)36-40(11-5,12-6)32-30-28-26-24-22-20-18-16-14-8-2;;/h7-36H2,1-6H3;2*1H/q+2;;/p-2",HYWVDVCUGKAHLD-UHFFFAOYSA-L,784.432833176,0.00075,3.1249387366083,40.9,0.00000102,1.63,31.1,3.75,0.000178,25,gemini cationic,10.1039/C5CP02115D,10.1016/j.ces.2022.118208,,10.1039/C5CP02115D,10.1039/C5CP02115D,10.1039/C5CP02115D,10.1039/C5CP02115D,,10.1039/C5CP02115D
"N-(n-dodecyl)-N,N,N-triethylammoniumbromide",CCCCCCCCCCCC[N+](CC)(CC)CC.[Br-],"InChI=1S/C18H40N.BrH/c1-5-9-10-11-12-13-14-15-16-17-18-19(6-2,7-3)8-4;/h5-18H2,1-4H3;1H/q+1;/p-1",VVNBOKHXEBSBQJ-UHFFFAOYSA-M,349.23441238,0.011,1.95860731484178,39,0.00000287,0.58,33,2.35531309028567,0.0948638009500615,25,cationic,10.1016/j.colsurfa.2010.02.004,10.1016/j.ces.2022.118208,,10.1016/j.colsurfa.2010.02.004,10.1016/j.colsurfa.2010.02.004,10.1016/j.colsurfa.2010.02.004,10.1016/j.colsurfa.2010.02.004,calculated,calculated
Dodecylethylisopropylolammoniumbromide,CCCCCCCCCCCC[N+](CC)CC(C)O.[Br-],"InChI=1S/C17H37NO.BrH/c1-4-6-7-8-9-10-11-12-13-14-15-18(5-2)16-17(3)19;/h17,19H,4-16H2,1-3H3;1H/q+1;/p-1",PFLYBIDBPVAIIG-UHFFFAOYSA-M,350.205851904,0.0000013,5.88605664769316,27.4,0.00000281,0.59,44.6,3.61,0.000245,25,cationic,10.1007/s11743-015-1762-y,10.1016/j.ces.2022.118208,10.1080/01932691.2019.1584112,10.1007/s11743-015-1762-y,,10.1007/s11743-015-1762-y,10.1007/s11743-015-1762-y,,
"N-(n-dodecyl)-N,N,N-tripropylammoniumbromide",CCCCCCCCCCCC[N+](CCC)(CCC)CCC.[Br-],"InChI=1S/C21H46N.BrH/c1-5-9-10-11-12-13-14-15-16-17-21-22(18-6-2,19-7-3)20-8-4;/h5-21H2,1-4H3;1H/q+1;/p-1",JLLNGBZMJOSJQD-UHFFFAOYSA-M,391.281362572,0.0085,2.07058107428571,39,0.00000238,0.7,33,2.54896156820335,0.0781627905997558,25,cationic,10.1016/j.colsurfa.2010.02.004,10.1016/j.ces.2022.118208,,10.1016/j.colsurfa.2010.02.004,10.1016/j.colsurfa.2010.02.004,10.1016/j.colsurfa.2010.02.004,10.1016/j.colsurfa.2010.02.004,calculated,calculated
,CCCCCCCCCCCC[N+](CCC)(CCC)CCCC[N+](CCC)(CCC)CCCCCCCCCCCC.[Br-].[Br-],"InChI=1S/C40H86N2.2BrH/c1-7-13-15-17-19-21-23-25-27-29-37-41(33-9-3,34-10-4)39-31-32-40-42(35-11-5,36-12-6)38-30-28-26-24-22-20-18-16-14-8-2;;/h7-40H2,1-6H3;2*1H/q+2;;/p-2",XNUDZNMTBRWQLK-UHFFFAOYSA-L,752.515774952,0.0059,2.22914798835786,38.6,0.00000091,1.83,33.37,3.08891190563153,0.0455514917707407,25,gemini cationic,10.1016/j.colsurfa.2015.02.005,10.1016/j.ces.2022.118208,,10.1016/j.colsurfa.2015.02.005,10.1016/j.colsurfa.2015.02.005,calculated,10.1016/j.colsurfa.2015.02.005,calculated,calculated
Dodecylpropylisopropylolammoniumbromide,CCCCCCCCCCCC[N+](CCC)CC(C)O.[Br-],"InChI=1S/C18H39NO.BrH/c1-4-6-7-8-9-10-11-12-13-14-16-19(15-5-2)17-18(3)20;/h18,20H,4-17H2,1-3H3;1H/q+1;/p-1",NMKQCPZAYAMZFO-UHFFFAOYSA-M,364.221501968,0.00000111,5.95467702121334,26.2,0.00000286,0.58,45.8,3.72,0.000191,25,cationic,10.1007/s11743-015-1762-y,10.1016/j.ces.2022.118208,,10.1007/s11743-015-1762-y,,10.1007/s11743-015-1762-y,10.1007/s11743-015-1762-y,,
"N-(n-dodecyl)-N,N,N-tributylammoniumbromide",CCCCCCCCCCCC[N+](CCCC)(CCCC)CCCC.[Br-],"InChI=1S/C24H52N.BrH/c1-5-9-13-14-15-16-17-18-19-20-24-25(21-10-6-2,22-11-7-3)23-12-8-4;/h5-24H2,1-4H3;1H/q+1;/p-1",FGQQGDVRJUAQLN-UHFFFAOYSA-M,433.328312764,0.0045,2.34678748622466,35.5,0.00000245,0.68,36.5,2.93661486443959,0.0530449896366689,25,cationic,10.1016/j.colsurfa.2010.02.004,10.1016/j.ces.2022.118208,,10.1016/j.colsurfa.2010.02.004,10.1016/j.colsurfa.2010.02.004,10.1016/j.colsurfa.2010.02.004,10.1016/j.colsurfa.2010.02.004,calculated,calculated
,CCCCCCCCCCCC[N+](CCCCCCCCCCCC)CCCCCC[N+](CCCCCCCCCCCC)CCCCCCCCCCCC.[Br-].[Br-],"InChI=1S/C54H112N2.2BrH/c1-5-9-13-17-21-25-29-33-37-43-49-55(50-44-38-34-30-26-22-18-14-10-6-2)53-47-41-42-48-54-56(51-45-39-35-31-27-23-19-15-11-7-3)52-46-40-36-32-28-24-20-16-12-8-4;;/h5-54H2,1-4H3;2*1H/q+2;;/p-2",SOFBZSWSNYBSNE-UHFFFAOYSA-L,946.719225784,,,30.9,,,,,,,gemini cationic,,10.1016/j.ces.2022.118208,,10.1016/j.molliq.2015.05.054,,,,,
,CCCCCCCCCCCC[N+](CCCCCCCCCCCC)CCC[N+](CCCCCCCCCCCC)CCCCCCCCCCCC.[Br-].[Br-],"InChI=1S/C51H106N2.2BrH/c1-5-9-13-17-21-25-29-33-37-41-46-52(47-42-38-34-30-26-22-18-14-10-6-2)50-45-51-53(48-43-39-35-31-27-23-19-15-11-7-3)49-44-40-36-32-28-24-20-16-12-8-4;;/h5-51H2,1-4H3;2*1H/q+2;;/p-2",DAWCGQLMCCISSP-UHFFFAOYSA-L,904.672275592,,,32.9,,,,,,,gemini cationic,,10.1016/j.ces.2022.118208,,10.1016/j.molliq.2015.05.054,,,,,
,CCCCCCCCCCCC[N+](CCCCCCCCCCCC)CC[N+](CCCCCCCCCCCC)CCCCCCCCCCCC.[Br-].[Br-],"InChI=1S/C50H104N2.2BrH/c1-5-9-13-17-21-25-29-33-37-41-45-51(46-42-38-34-30-26-22-18-14-10-6-2)49-50-52(47-43-39-35-31-27-23-19-15-11-7-3)48-44-40-36-32-28-24-20-16-12-8-4;;/h5-50H2,1-4H3;2*1H/q+2;;/p-2",VUBVDRYTORGJGN-UHFFFAOYSA-L,890.656625528,,,33.9,,,,,,,gemini cationic,,10.1016/j.ces.2022.118208,,10.1016/j.molliq.2015.05.054,,,,,
"hexanediyl-1,6-bis[(diisopropylol)dodecylammonium]dibromide",CCCCCCCCCCCC[N+](CCCCCC[N+](CCCCCCCCCCCC)(CC(C)O)CC(C)O)(CC(C)O)CC(C)O.[Br-].[Br-],"InChI=1S/C42H90N2O4.2BrH/c1-7-9-11-13-15-17-19-21-23-27-31-43(35-39(3)45,36-40(4)46)33-29-25-26-30-34-44(37-41(5)47,38-42(6)48)32-28-24-22-20-18-16-14-12-10-8-2;;/h39-42,45-48H,7-38H2,1-6H3;2*1H/q+2;;/p-2",OUNUMSNCJVLZHG-UHFFFAOYSA-L,844.52673356,0.000354,3.45099673797421,32.7,0.00000165,1.01,39.3,4.13,0.0000741,25,gemini cationic,10.1002/jsde.12506,10.1016/j.ces.2022.118208,,10.1002/jsde.12506,10.1002/jsde.12506,10.1002/jsde.12506,10.1002/jsde.12506,10.1002/jsde.12506,
"hexanediyl-1,6-bis[(isopropylol)dodecylammonium]dibromide",CCCCCCCCCCCC[N+](CCCCCC[N+](CCCCCCCCCCCC)CC(C)O)CC(C)O.[Br-].[Br-],"InChI=1S/C36H76N2O2.2BrH/c1-5-7-9-11-13-15-17-19-21-25-29-37(33-35(3)39)31-27-23-24-28-32-38(34-36(4)40)30-26-22-20-18-16-14-12-10-8-6-2;;/h35-36,39-40H,5-34H2,1-4H3;2*1H/q+2;;/p-2",UGEWPSDQZGQLBM-UHFFFAOYSA-L,726.427353872,0.000443,3.35359627377693,36,0.00000214,0.78,36,3.83,0.000148,25,gemini cationic,10.1002/jsde.12506,10.1016/j.ces.2022.118208,,10.1002/jsde.12506,10.1002/jsde.12506,10.1002/jsde.12506,10.1002/jsde.12506,10.1002/jsde.12506,
di-2-hydroxypropyldodecylamines.,CCCCCCCCCCCC[N+](CCCCC[N+](CCCCCCCCCCCC)(CC(C)O)CC(C)O)(CC(C)O)CC(C)O.[Br-].[Br-],"InChI=1S/C41H88N2O4.2BrH/c1-7-9-11-13-15-17-19-21-23-26-30-42(34-38(3)44,35-39(4)45)32-28-25-29-33-43(36-40(5)46,37-41(6)47)31-27-24-22-20-18-16-14-12-10-8-2;;/h38-41,44-47H,7-37H2,1-6H3;2*1H/q+2;;/p-2",YACVLFVKALLJJH-UHFFFAOYSA-L,830.511083496,0.00066,3.18045606445813,27.9,0.00000197,1.26,44.1,4.9,0.0000126,25,gemini cationic,10.1016/j.colsurfa.2019.05.019,10.1016/j.ces.2022.118208,,10.1016/j.colsurfa.2019.05.019,10.1016/j.colsurfa.2019.05.019,10.1016/j.colsurfa.2019.05.019,10.1016/j.colsurfa.2019.05.019,10.1016/j.colsurfa.2019.05.019,
2-hydroxypropyldodecylamines,CCCCCCCCCCCC[N+](CCCCC[N+](CCCCCCCCCCCC)CC(C)O)CC(C)O.[Br-].[Br-],"InChI=1S/C35H74N2O2.2BrH/c1-5-7-9-11-13-15-17-19-21-24-28-36(32-34(3)38)30-26-23-27-31-37(33-35(4)39)29-25-22-20-18-16-14-12-10-8-6-2;;/h34-35,38-39H,5-33H2,1-4H3;2*1H/q+2;;/p-2",ADTZLTAMQCHZQE-UHFFFAOYSA-L,712.411703808,0.001395,2.85542579239038,30.7,0.00000207,1.2,41.3,4.02,0.0000955,25,gemini cationic,10.1016/j.colsurfa.2019.05.019,10.1016/j.ces.2022.118208,,10.1016/j.colsurfa.2019.05.019,10.1016/j.colsurfa.2019.05.019,10.1016/j.colsurfa.2019.05.019,10.1016/j.colsurfa.2019.05.019,10.1016/j.colsurfa.2019.05.019,
,CCCCCCCCCCCC[N+](CCO)(CCO)CCCCCCCCCC[N+](CCO)(CCO)CCCCCCCCCCCC.[Br-].[Br-],"InChI=1S/C42H90N2O4.2BrH/c1-3-5-7-9-11-13-15-19-23-27-31-43(35-39-45,36-40-46)33-29-25-21-17-18-22-26-30-34-44(37-41-47,38-42-48)32-28-24-20-16-14-12-10-8-6-4-2;;/h45-48H,3-42H2,1-2H3;2*1H/q+2;;/p-2",PESSLYXOFWLHJN-UHFFFAOYSA-L,844.52673356,,,36.3,,,,,,,gemini cationic,,10.1016/j.ces.2022.118208,,10.1016/j.colsurfa.2008.04.028,,,,,
,CCCCCCCCCCCC[N+](CCO)(CCO)CCCCCCCC[N+](CCO)(CCO)CCCCCCCCCCCC.[Br-].[Br-],"InChI=1S/C40H86N2O4.2BrH/c1-3-5-7-9-11-13-15-17-21-25-29-41(33-37-43,34-38-44)31-27-23-19-20-24-28-32-42(35-39-45,36-40-46)30-26-22-18-16-14-12-10-8-6-4-2;;/h43-46H,3-40H2,1-2H3;2*1H/q+2;;/p-2",KBLHQHKDBHYOCR-UHFFFAOYSA-L,816.495433432,,,36,,,,,,,gemini cationic,,10.1016/j.ces.2022.118208,,10.1016/j.colsurfa.2008.04.028,,,,,
,CCCCCCCCCCCC[N+](CCO)(CCO)CCCCCC[N+](CCO)(CCO)CCCCCCCCCCCC.[Br-].[Br-],"InChI=1S/C38H82N2O4.2BrH/c1-3-5-7-9-11-13-15-17-19-23-27-39(31-35-41,32-36-42)29-25-21-22-26-30-40(33-37-43,34-38-44)28-24-20-18-16-14-12-10-8-6-4-2;;/h41-44H,3-38H2,1-2H3;2*1H/q+2;;/p-2",WRAFTOYEHMNSHF-UHFFFAOYSA-L,788.464133304,,,36.3,,,,,,,gemini cationic,,10.1016/j.ces.2022.118208,,10.1016/j.colsurfa.2008.04.028,,,,,
,CCCCCCCCCCCC[N+](CCO)(CCO)CCCC[N+](CCO)(CCO)CCCCCCCCCCCC.[Br-].[Br-],"InChI=1S/C36H78N2O4.2BrH/c1-3-5-7-9-11-13-15-17-19-21-25-37(29-33-39,30-34-40)27-23-24-28-38(31-35-41,32-36-42)26-22-20-18-16-14-12-10-8-6-4-2;;/h39-42H,3-36H2,1-2H3;2*1H/q+2;;/p-2",IXKFHVVMOKWTDC-UHFFFAOYSA-L,760.432833176,,,35.6,,,,,,,gemini cationic,,10.1016/j.ces.2022.118208,,10.1016/j.colsurfa.2008.04.028,,,,,
dodecyl-tris(2-hydroxyethyl)azanium-chloride,CCCCCCCCCCCC[N+](CCO)(CCO)CCO.[Cl-],"InChI=1S/C18H40NO3.ClH/c1-2-3-4-5-6-7-8-9-10-11-12-19(13-16-20,14-17-21)15-18-22;/h20-22H,2-18H2,1H3;1H/q+1;/p-1",WBHQMQIMDAZXJQ-UHFFFAOYSA-M,353.26967182,0.025,1.60205999132796,37.8,,,34.17,,,25,cationic,10.1002/9781118228920.ch3,10.1016/j.ces.2022.118208,,10.1002/0471670561,,calculated,,,
,CCCCCCCCCCCC[N+].[Cl-],"InChI=1S/C12H25N.ClH/c1-2-3-4-5-6-7-8-9-10-11-12-13;/h2-12H2,1H3;1H/q+1;/p-1",FWQUXEZZNLVVPD-UHFFFAOYSA-M,218.16755248,,,29,,,,,,,cationic,,10.1016/j.ces.2022.118208,,10.1006/jcis.1994.1186,,,,,
1-dodecyl-2-((4-hydroxyethyl)imino)-1-methylpyrrolidin-1-iumbromide,CCCCCCCCCCCC[N+]1(C)CCCC1=NCCO.[Br-],"InChI=1S/C19H39N2O.BrH/c1-3-4-5-6-7-8-9-10-11-12-16-21(2)17-13-14-19(21)20-15-18-22;/h22H,3-18H2,1-2H3;1H/q+1;/p-1",AMVRJUCNEORHFO-UHFFFAOYSA-M,390.224575968,0.0031,2.50863830616573,33.9,0.00000284,0.58,37.88,3.06680934942098,0.0465695050830689,25,cationic,10.1016/j.molliq.2015.11.047,10.1016/j.ces.2022.118208,,10.1016/j.molliq.2015.11.047,10.1016/j.molliq.2015.11.047,,,calculated,calculated
1-dodecyl-2-(phenethylimino)-1-methylpyrrolidin-1-iumbromide,CCCCCCCCCCCC[N+]1(C)CCCC1=NCCc1ccccc1.[Br-],"InChI=1S/C25H43N2.BrH/c1-3-4-5-6-7-8-9-10-11-15-22-27(2)23-16-19-25(27)26-21-20-24-17-13-12-14-18-24;/h12-14,17-18H,3-11,15-16,19-23H2,1-2H3;1H/q+1;/p-1",WOXRZUOBZZQNRB-UHFFFAOYSA-M,450.260961476,0.00287,2.54211810326601,33.1,0.00000299,0.56,38.68,3.09572014539112,0.0452424196059041,25,cationic,10.1016/j.molliq.2015.11.047,10.1016/j.ces.2022.118208,,10.1016/j.molliq.2015.11.047,10.1016/j.molliq.2015.11.047,,,calculated,calculated
1-dodecyl-2-((4-hydroxyphenyl)imino)-1-methylpyrrolidin-1-iumbromide,CCCCCCCCCCCC[N+]1(C)CCCC1=Nc1ccc(O)cc1.[Br-],"InChI=1S/C23H38N2O.BrH/c1-3-4-5-6-7-8-9-10-11-12-19-25(2)20-13-14-23(25)24-21-15-17-22(26)18-16-21;/h15-18H,3-14,19-20H2,1-2H3;1H",RKYMUZCDKNXSCT-UHFFFAOYSA-N,438.224575968,0.00263,2.58004425151024,29,0.00000313,0.53,42.78,3.2236065085034,0.0398112195369811,25,cationic,10.1016/j.molliq.2015.11.047,10.1016/j.ces.2022.118208,,10.1016/j.molliq.2015.11.047,10.1016/j.molliq.2015.11.047,,,calculated,calculated
"1,4-didodecyl-1,4-dimethylpiperazine-1,4-diiumbromide",CCCCCCCCCCCC[N+]1(C)CC[N+](C)(CCCCCCCCCCCC)CC1.[Br-].[Br-],"InChI=1S/C30H64N2.2BrH/c1-5-7-9-11-13-15-17-19-21-23-25-31(3)27-29-32(4,30-28-31)26-24-22-20-18-16-14-12-10-8-6-2;;/h5-30H2,1-4H3;2*1H/q+2;;/p-2",CGUQEESUHVPYHN-UHFFFAOYSA-L,610.343624248,0.002,2.69897000433602,36,0.000000558,3,36,4.85,0.000014,25,gemini cationic,10.1080/01932691.2017.1381916,10.1016/j.ces.2022.118208,,10.1080/01932691.2017.1381916,10.1080/01932691.2017.1381916,10.1080/01932691.2017.1381916,10.1080/01932691.2017.1381916,10.1080/01932691.2017.1381916,
,CCCCCCCCCCCC[N+]1(CC#CC[N+]2(CCCCCCCCCCCC)CCCC2)CCCC1.[Br-].[Br-],"InChI=1S/C36H70N2.2BrH/c1-3-5-7-9-11-13-15-17-19-21-29-37(31-23-24-32-37)35-27-28-36-38(33-25-26-34-38)30-22-20-18-16-14-12-10-8-6-4-2;;/h3-26,29-36H2,1-2H3;2*1H/q+2;;/p-2",GJIQVXFTWNIPSA-UHFFFAOYSA-L,688.39057444,0.0009099,3.04100633496967,,,,,,,25,gemini cationic,10.1063/5.0051623,,,,,,,,
,CCCCCCCCCCCC[N+]1(CC#CC[N+]2(CCCCCCCCCCCC)CCCCC2)CCCCC1.[Br-].[Br-],"InChI=1S/C38H74N2.2BrH/c1-3-5-7-9-11-13-15-17-19-23-31-39(33-25-21-26-34-39)37-29-30-38-40(35-27-22-28-36-40)32-24-20-18-16-14-12-10-8-6-4-2;;/h3-28,31-38H2,1-2H3;2*1H/q+2;;/p-2",HLKPVDXNGFFZLA-UHFFFAOYSA-L,716.421874568,0.0008913,3.04997609347667,,,,,,,25,gemini cationic,10.1063/5.0051623,,,,,,,,
"1,1'-(ethane-1,2-diylbis(oxy))bis(2-oxoethane-1,2-diyl)bis(1-dodecylpyrrolidin-1-ium)-dibromide",CCCCCCCCCCCC[N+]1(CC(=O)OCCOC(=O)C[N+]2(CCCCCCCCCCCC)CCCC2)CCCC1.[Br-].[Br-],"InChI=1S/C38H74N2O4.2BrH/c1-3-5-7-9-11-13-15-17-19-21-27-39(29-23-24-30-39)35-37(41)43-33-34-44-38(42)36-40(31-25-26-32-40)28-22-20-18-16-14-12-10-8-6-4-2;;/h3-36H2,1-2H3;2*1H/q+2;;/p-2",AZFGFWHKYODRAP-UHFFFAOYSA-L,780.401533048,0.00067,3.17392519729917,40,0.00000139,1.19,32,3.65,0.000224,25,gemini cationic,10.1039/C5CP02115D,10.1016/j.ces.2022.118208,,10.1039/C5CP02115D,10.1039/C5CP02115D,10.1039/C5CP02115D,10.1039/C5CP02115D,,10.1039/C5CP02115D