IUPAC_name,SMILES,InChI,InChIKey,Molecular_Weight,CMC,pCMC,AW_ST_CMC,Gamma_max,Area_min,Pi_CMC,PC20,C20,Temp_Celsius,Surfactant_Type,Ref_CMC,Ref_AW_ST_CMC,SubRef_CMC,SubRef_AW_ST_CMC,Ref_Gamma_max,Ref_Pi_CMC,Ref_Area_min,Ref_PC20,Ref_C20
sodium-4-dodecylbenzenesulfonate,CCCCCCCCCCCCc1ccc(S(=O)(=O)[O-])cc1.[Na+],"InChI=1S/C18H30O3S.Na/c1-2-3-4-5-6-7-8-9-10-11-12-17-13-15-18(16-14-17)22(19,20)21;/h13-16H,2-12H2,1H3,(H,19,20,21);/q;+1/p-1",JHJUUEHSAZXEEO-UHFFFAOYSA-M,348.173510068,0.001199,2.92118081690115,,,,,,,25,anionic,10.1021/ci600462d,,10.1016/j.theochem.2004.08.039,,,,,,
1-dodecyl-3-methylimidazolium,CCCCCCCCCCCCn1cc[n+](C)c1.[Br-],"InChI=1S/C16H31N2.BrH/c1-3-4-5-6-7-8-9-10-11-12-13-18-15-14-17(2)16-18;/h14-16H,3-13H2,1-2H3;1H/q+1;/p-1",QWLSTCVUGYAKLE-UHFFFAOYSA-M,330.167061092,0.0109,1.96257350205938,39.4,0.00000191,0.868,33.6,2.67,0.069252225309346,25,cationic,10.1021/la0633029,10.1016/j.ces.2022.118208,,10.1021/la0633029,10.1021/la0633029,10.1021/la0633029,10.1021/la0633029,10.1021/la0633029,calculated
,CCCCCCCCCCCCn1cc[n+](C)c1.[Cl-],"InChI=1S/C16H31N2.ClH/c1-3-4-5-6-7-8-9-10-11-12-13-18-15-14-17(2)16-18;/h14-16H,3-13H2,1-2H3;1H/q+1;/p-1",OPXNHKQUEXEWAM-UHFFFAOYSA-M,286.217576672,,,38.7,,,,,,,cationic,,10.1016/j.ces.2022.118208,,10.1021/je400861g,,,,,
,CCCCCCCCCCCCn1cc[n+](CC(O)C[n+]2ccn(CCCCCCCCCCCC)c2)c1.[Cl-].[Cl-],"InChI=1S/C33H62N4O.2ClH/c1-3-5-7-9-11-13-15-17-19-21-23-34-25-27-36(31-34)29-33(38)30-37-28-26-35(32-37)24-22-20-18-16-14-12-10-8-6-4-2;;/h25-28,31-33,38H,3-24,29-30H2,1-2H3;2*1H/q+2;;/p-2",LAJJKCVSBAXZMV-UHFFFAOYSA-L,600.430067964,0.0007798,3.10801676914803,,,,,,,25,gemini cationic,10.1063/5.0051623,,10.1002/9781119075691.ch43,,,,,,
1-dodecyl-3-[6-(3-dodecylimidazol-3-ium-1-yl)hexyl]imidazol-1-ium-dibromide,CCCCCCCCCCCCn1cc[n+](CCCCCC[n+]2ccn(CCCCCCCCCCCC)c2)c1.[Br-].[Br-],"InChI=1S/C36H68N4.2BrH/c1-3-5-7-9-11-13-15-17-19-23-27-37-31-33-39(35-37)29-25-21-22-26-30-40-34-32-38(36-40)28-24-20-18-16-14-12-10-8-6-4-2;;/h31-36H,3-30H2,1-2H3;2*1H/q+2;;/p-2",SZVSCHBZPOKVRF-UHFFFAOYSA-L,714.381072376,0.0007396,3.13100309751286,,,,,,,25,gemini cationic,10.1063/5.0051623,,,,,,,,
1-dodecyl-3-[4-(3-dodecylimidazol-3-ium-1-yl)butyl]imidazol-1-ium-dibromide,CCCCCCCCCCCCn1cc[n+](CCCC[n+]2ccn(CCCCCCCCCCCC)c2)c1.[Br-].[Br-],"InChI=1S/C34H64N4.2BrH/c1-3-5-7-9-11-13-15-17-19-21-25-35-29-31-37(33-35)27-23-24-28-38-32-30-36(34-38)26-22-20-18-16-14-12-10-8-6-4-2;;/h29-34H,3-28H2,1-2H3;2*1H/q+2;;/p-2",NRZKIFFLYDVWPL-UHFFFAOYSA-L,686.349772248,0.0007295,3.13697470377053,,,,,,,25,gemini cationic,10.1063/5.0051623,,,,,,,,
,CCCCCCCCCCCCn1cc[n+](CCC[n+]2ccn(CCCCCCCCCCCC)c2)c1.[Br-].[Br-],"InChI=1S/C33H62N4.2BrH/c1-3-5-7-9-11-13-15-17-19-21-24-34-28-30-36(32-34)26-23-27-37-31-29-35(33-37)25-22-20-18-16-14-12-10-8-6-4-2;;/h28-33H,3-27H2,1-2H3;2*1H/q+2;;/p-2",KTLPGHGZDIMPMA-UHFFFAOYSA-L,672.334122184,0.0005297,3.2759700270644,,,,,,,25,gemini cationic,10.1063/5.0051623,,,,,,,,
1-dodecyl-3-[2-(3-dodecylimidazol-3-ium-1-yl)ethyl]imidazol-1-ium-dibromide,CCCCCCCCCCCCn1cc[n+](CC[n+]2ccn(CCCCCCCCCCCC)c2)c1.[Br-].[Br-],"InChI=1S/C32H60N4.2BrH/c1-3-5-7-9-11-13-15-17-19-21-23-33-25-27-35(31-33)29-30-36-28-26-34(32-36)24-22-20-18-16-14-12-10-8-6-4-2;;/h25-28,31-32H,3-24,29-30H2,1-2H3;2*1H/q+2;;/p-2",XVKUDDORRGQSJI-UHFFFAOYSA-L,658.31847212,0.0006397,3.19402364928244,,,,,,,25,gemini cationic,10.1063/5.0051623,,,,,,,,
,CCCCCCCCCCCCn1cc[n+](COCCCCCCOC[n+]2ccn(CCCCCCCCCCCC)c2)c1.[Cl-].[Cl-],"InChI=1S/C38H72N4O2.2ClH/c1-3-5-7-9-11-13-15-17-19-23-27-39-29-31-41(35-39)37-43-33-25-21-22-26-34-44-38-42-32-30-40(36-42)28-24-20-18-16-14-12-10-8-6-4-2;;/h29-32,35-36H,3-28,33-34,37-38H2,1-2H3;2*1H/q+2;;/p-2",QBLJSYCDXNOUID-UHFFFAOYSA-L,686.503232904,0.0005128613839913,3.29000000000006,30.3,0.00000203,0.89,41.7,3.91413638976563,0.0199577769457365,25,gemini cationic,10.1111/cbdd.12236,10.1111/cbdd.12236,10.1111/cbdd.12236,,10.1111/cbdd.12236,10.1111/cbdd.12236,10.1111/cbdd.12236,calculated,calculated
,CCCCCCCCCCCCn1cc[n+](COCCCCCOC[n+]2ccn(CCCCCCCCCCCC)c2)c1.[Cl-].[Cl-],"InChI=1S/C37H70N4O2.2ClH/c1-3-5-7-9-11-13-15-17-19-22-26-38-28-30-40(34-38)36-42-32-24-21-25-33-43-37-41-31-29-39(35-41)27-23-20-18-16-14-12-10-8-6-4-2;;/h28-31,34-35H,3-27,32-33,36-37H2,1-2H3;2*1H/q+2;;/p-2",KNZZGWQPRRFQRP-UHFFFAOYSA-L,672.48758284,0.0005623413251903,3.25000000000004,38.1,0.00000224,0.8,33.9,3.6123118933101,0.0269893781209155,25,gemini cationic,10.1111/cbdd.12236,10.1111/cbdd.12236,10.1111/cbdd.12236,,10.1111/cbdd.12236,10.1111/cbdd.12236,10.1111/cbdd.12236,calculated,calculated
1-dodecyl-3-[4-[(3-dodecylimidazol-1-ium-1-yl)methoxy]butoxymethyl]imidazol-3-ium-dichloride,CCCCCCCCCCCCn1cc[n+](COCCCCOC[n+]2ccn(CCCCCCCCCCCC)c2)c1.[Cl-].[Cl-],"InChI=1S/C36H68N4O2.2ClH/c1-3-5-7-9-11-13-15-17-19-21-25-37-27-29-39(33-37)35-41-31-23-24-32-42-36-40-30-28-38(34-40)26-22-20-18-16-14-12-10-8-6-4-2;;/h27-30,33-34H,3-26,31-32,35-36H2,1-2H3;2*1H/q+2;;/p-2",BBYOFVAYDDIUFU-UHFFFAOYSA-L,658.471932776,0.0006025595860743,3.22000000000004,39.2,0.00000227,0.78,32.8,3.54923039346456,0.0287467548335472,25,gemini cationic,10.1111/cbdd.12236,10.1111/cbdd.12236,10.1111/cbdd.12236,,10.1111/cbdd.12236,10.1111/cbdd.12236,10.1111/cbdd.12236,calculated,calculated
,CCCCCCCCCCCCn1cc[n+](COCCCOC[n+]2ccn(CCCCCCCCCCCC)c2)c1.[Cl-].[Cl-],"InChI=1S/C35H66N4O2.2ClH/c1-3-5-7-9-11-13-15-17-19-21-24-36-26-28-38(32-36)34-40-30-23-31-41-35-39-29-27-37(33-39)25-22-20-18-16-14-12-10-8-6-4-2;;/h26-29,32-33H,3-25,30-31,34-35H2,1-2H3;2*1H/q+2;;/p-2",YNQGJKLSYWDHQZ-UHFFFAOYSA-L,644.456282712,0.0006606934480075,3.18000000000006,40.3,0.0000023,0.76,31.7,3.47701188926719,0.0308996046620966,25,gemini cationic,10.1111/cbdd.12236,10.1111/cbdd.12236,10.1111/cbdd.12236,,10.1111/cbdd.12236,10.1111/cbdd.12236,10.1111/cbdd.12236,calculated,calculated
,CCCCCCCCCCCCn1cc[n+](COCCOC[n+]2ccn(CCCCCCCCCCCC)c2)c1.[Cl-].[Cl-],"InChI=1S/C34H64N4O2.2ClH/c1-3-5-7-9-11-13-15-17-19-21-23-35-25-27-37(31-35)33-39-29-30-40-34-38-28-26-36(32-38)24-22-20-18-16-14-12-10-8-6-4-2;;/h25-28,31-32H,3-24,29-30,33-34H2,1-2H3;2*1H/q+2;;/p-2",XXODVYLNCWHEBW-UHFFFAOYSA-L,630.440632648,0.0007079457843841,3.15000000000002,41.4,0.00000233,0.74,30.6,3.41562304612205,0.0328559295635743,25,gemini cationic,10.1111/cbdd.12236,10.1111/cbdd.12236,10.1111/cbdd.12236,,10.1111/cbdd.12236,10.1111/cbdd.12236,10.1111/cbdd.12236,calculated,calculated
,CCCCCCCCCCCOC1[CH][C@H](O)[C@@H](O)C(O)O1,"InChI=1S/C16H31O5/c1-2-3-4-5-6-7-8-9-10-11-20-14-12-13(17)15(18)16(19)21-14/h12-19H,2-11H2,1H3/t13-,14?,15+,16?/m0/s1",WCGXXPBJCDWMHX-JWMHWRSXSA-N,303.217149092,0.0002999,3.52302353424047,,,,,,,25,non-ionic,10.1021/ie4016232,,,,,,,,
,CCCCCCCCCCCOCCOCCS(=O)(=O)[O-].[Na+],"InChI=1S/C15H32O5S.Na/c1-2-3-4-5-6-7-8-9-10-11-19-12-13-20-14-15-21(16,17)18;/h2-15H2,1H3,(H,16,17,18);/q;+1/p-1",DFNBVRXEHCDLEA-UHFFFAOYSA-M,346.178989372,0.0029,2.53760200210104,,,,,,,25,anionic,10.1002/9781118228920.ch3,,,,,,,,
,CCCCCCCCCCCOCCS(=O)(=O)[O-].[Na+],"InChI=1S/C13H28O4S.Na/c1-2-3-4-5-6-7-8-9-10-11-17-12-13-18(14,15)16;/h2-13H2,1H3,(H,14,15,16);/q;+1/p-1",PLZZDSZKRUXMDD-UHFFFAOYSA-M,302.152774624,0.0039,2.4089353929735,,,,,,,25,anionic,10.1002/9781118228920.ch3,,,,,,,,
,CCCCCCCCCCCOOCCOCCOCCOCCOCCOCCOCCOCC,"InChI=1S/C27H56O9/c1-3-5-6-7-8-9-10-11-12-13-35-36-27-26-34-25-24-33-23-22-32-21-20-31-19-18-30-17-16-29-15-14-28-4-2/h3-27H2,1-2H3",MPAVLQYTGJAZFL-UHFFFAOYSA-N,524.392433372,0.0002999,3.52302353424047,,,,,,,25,non-ionic,10.1021/ie4016232,,,,,,,,
sodium-undecyl-sulfate,CCCCCCCCCCCOS(=O)(=O)[O-].[Na+],"InChI=1S/C11H24O4S.Na/c1-2-3-4-5-6-7-8-9-10-11-15-16(12,13)14;/h2-11H2,1H3,(H,12,13,14);/q;+1/p-1",UOWRKHDWHDWJHK-UHFFFAOYSA-M,274.121474496,0.01648,1.7830427926389,,,,,,,25,anionic,10.1021/ci600462d,,10.1006/jcis.1996.4680,,,,,,
"N,N'-bis(dodecyldimethyl)-3-methyl-1,5-pentanediammoniumdibromide",CCCCCCCCCCC[N+](C)(C)CCCCC[N+](C)(C)CCCCCCCCCCC.[Br-].[Br-],"InChI=1S/C31H68N2.2BrH/c1-7-9-11-13-15-17-19-21-24-28-32(3,4)30-26-23-27-31-33(5,6)29-25-22-20-18-16-14-12-10-8-2;;/h7-31H2,1-6H3;2*1H/q+2;;/p-2",JJHVKNXOSSPAQH-UHFFFAOYSA-L,626.374924376,0.001,3,40,0.00000145,1.15,32,3.48320236627012,0.0307089122176082,25,gemini cationic,"['10.1016/j.chemosphere.2011.05.031', '10.1016/0021-9797(86)90417-0', '10.1016/0021-9797(86)90417-0']",10.1016/j.ces.2022.118208,,10.1016/0021-9797(86)90417-0,10.1016/0021-9797(86)90417-0,,,calculated,calculated
,CCCCCCCCCCC[N+](C)(C)CCCCNC[N+](C)(C)CCCCCCCCCCC.[Br-].[Br-],"InChI=1S/C31H69N3.2BrH/c1-7-9-11-13-15-17-19-21-24-28-33(3,4)29-26-23-27-32-31-34(5,6)30-25-22-20-18-16-14-12-10-8-2;;/h32H,7-31H2,1-6H3;2*1H/q+2;;/p-2",DYVGPVLYYWIHDN-UHFFFAOYSA-L,641.385823408,0.0029998531811907,2.52290000000001,,,,,,,25,gemini cationic,10.1016/j.chemosphere.2011.05.031,,,,,,,,
,CCCCCCCCCCC[N+](C)(C)CCCCO[N+](C)(C)CCCCCCCCCCC.[Br-].[Br-],"InChI=1S/C30H66N2O.2BrH/c1-7-9-11-13-15-17-19-21-23-27-31(3,4)28-25-26-30-33-32(5,6)29-24-22-20-18-16-14-12-10-8-2;;/h7-30H2,1-6H3;2*1H/q+2;;/p-2",IMBKVEBNZSOHDO-UHFFFAOYSA-L,628.354188932,0.0026001595631652,2.58500000000001,,,,,,,25,gemini cationic,10.1016/j.chemosphere.2011.05.031,,,,,,,,
"N,N'-bis(undecyldimethyl)-3-N-methyl-1,5-pentanediammoniumdibromide",CCCCCCCCCCC[N+](C)(C)CCN(C)CC[N+](C)(C)CCCCCCCCCCC.[Br-].[Br-],"InChI=1S/C31H69N3.2BrH/c1-8-10-12-14-16-18-20-22-24-28-33(4,5)30-26-32(3)27-31-34(6,7)29-25-23-21-19-17-15-13-11-9-2;;/h8-31H2,1-7H3;2*1H/q+2;;/p-2",LPIRCXLCKMPGBM-UHFFFAOYSA-L,641.385823408,0.0021,2.67778070526608,37.5,0.00000161,1.03,34.5,3.20362593046429,0.0406146706955215,25,gemini cationic,10.1016/0021-9797(86)90417-0,10.1016/j.ces.2022.118208,,10.1016/0021-9797(86)90417-0,10.1016/0021-9797(86)90417-0,,,calculated,calculated
"N,N'-bis(undecyldimethyl)-3-O-1,5-pentanediammoniumdibromide",CCCCCCCCCCC[N+](C)(C)CCOCC[N+](C)(C)CCCCCCCCCCC.[Br-].[Br-],"InChI=1S/C30H66N2O.2BrH/c1-7-9-11-13-15-17-19-21-23-25-31(3,4)27-29-33-30-28-32(5,6)26-24-22-20-18-16-14-12-10-8-2;;/h7-30H2,1-6H3;2*1H/q+2;;/p-2",KMJPZRZTPONLDO-UHFFFAOYSA-L,628.354188932,0.0021,2.67778070526608,39.1,0.00000131,1.27,32.9,3.25273619261231,0.0386682591448129,25,gemini cationic,10.1016/0021-9797(86)90417-0,10.1016/j.ces.2022.118208,,10.1016/0021-9797(86)90417-0,10.1016/0021-9797(86)90417-0,,,calculated,calculated
,CCCCCCCCCCC[N+]1(CCC#CCC[N+]2(CCCCCCCCCCC)CCCC2)CCCC1.[Br-].[Br-],"InChI=1S/C36H70N2.2BrH/c1-3-5-7-9-11-13-15-17-21-29-37(33-25-26-34-37)31-23-19-20-24-32-38(35-27-28-36-38)30-22-18-16-14-12-10-8-6-4-2;;/h3-18,21-36H2,1-2H3;2*1H/q+2;;/p-2",FRNOPHKZJBHDJU-UHFFFAOYSA-L,688.39057444,0.0053002944883579,2.27570000000001,,,,,,,25,gemini cationic,10.1016/j.chemosphere.2011.05.031,,,,,,,,
,CCCCCCCCCCC[N+]1(CCC#CCC[N+]2(CCCCCCCCCCC)CCCCC2)CCCCC1.[Br-].[Br-],"InChI=1S/C38H74N2.2BrH/c1-3-5-7-9-11-13-15-17-23-31-39(35-27-21-28-36-39)33-25-19-20-26-34-40(37-29-22-30-38-40)32-24-18-16-14-12-10-8-6-4-2;;/h3-18,21-38H2,1-2H3;2*1H/q+2;;/p-2",UIOLPZUFHTWLRP-UHFFFAOYSA-L,716.421874568,0.0059593651925593,2.22480000000001,,,,,,,25,gemini cationic,10.1016/j.chemosphere.2011.05.031,,,,,,,,
1-undecylpyridin-1-ium-bromide,CCCCCCCCCCC[n+]1ccccc1.[Br-],"InChI=1S/C16H28N.BrH/c1-2-3-4-5-6-7-8-9-11-14-17-15-12-10-13-16-17;/h10,12-13,15-16H,2-9,11,14H2,1H3;1H/q+1;/p-1",IDKTXLNOKRZIDS-UHFFFAOYSA-M,313.140511996,0.021,1.67778070526608,,,,,,,25,cationic,10.1021/acs.jpcb.1c05264,,10.1002/9781118228920,,,,,,
,CCCCCCCCCCCc1cc[nH+]cc1.[Br-],"InChI=1S/C16H27N.BrH/c1-2-3-4-5-6-7-8-9-10-11-16-12-14-17-15-13-16;/h12-15H,2-11H2,1H3;1H",RDSYGQKVKFCYMN-UHFFFAOYSA-N,313.140511996,0.021,1.67778070526608,,,,,,,25,cationic,10.1002/9781118228920.ch3,,,,,,,,
,CCCCCCCCCCCn1cc[n+](COCCCCCCOC[n+]2ccn(CCCCCCCCCCC)c2)c1.[Cl-].[Cl-],"InChI=1S/C36H68N4O2.2ClH/c1-3-5-7-9-11-13-15-17-21-25-37-27-29-39(33-37)35-41-31-23-19-20-24-32-42-36-40-30-28-38(34-40)26-22-18-16-14-12-10-8-6-4-2;;/h27-30,33-34H,3-26,31-32,35-36H2,1-2H3;2*1H/q+2;;/p-2",NTJLDWUJDNPKAZ-UHFFFAOYSA-L,658.471932776,0.0006309573444801,3.20000000000006,31.2,0.00000209,0.86,40.77,3.78107589181454,0.0227981498825927,25,gemini cationic,10.1111/cbdd.12236,10.1111/cbdd.12236,10.1002/9781119075691.ch43,,10.1111/cbdd.12236,calculated,10.1111/cbdd.12236,calculated,calculated
,CCCCCCCCCCCn1cc[n+](COCCCCCOC[n+]2ccn(CCCCCCCCCCC)c2)c1.[Cl-].[Cl-],"InChI=1S/C35H66N4O2.2ClH/c1-3-5-7-9-11-13-15-17-20-24-36-26-28-38(32-36)34-40-30-22-19-23-31-41-35-39-29-27-37(33-39)25-21-18-16-14-12-10-8-6-4-2;;/h26-29,32-33H,3-25,30-31,34-35H2,1-2H3;2*1H/q+2;;/p-2",LKTPPZPNPDYHLA-UHFFFAOYSA-L,644.456282712,0.0006918309709189,3.16000000000002,40.1,0.00000228,0.78,31.9,3.46473891922484,0.0312811712727567,25,gemini cationic,10.1111/cbdd.12236,10.1111/cbdd.12236,10.1111/cbdd.12236,,10.1111/cbdd.12236,10.1111/cbdd.12236,10.1111/cbdd.12236,calculated,calculated
,CCCCCCCCCCCn1cc[n+](COCCCCOC[n+]2ccn(CCCCCCCCCCC)c2)c1.[Cl-].[Cl-],"InChI=1S/C34H64N4O2.2ClH/c1-3-5-7-9-11-13-15-17-19-23-35-25-27-37(31-35)33-39-29-21-22-30-40-34-38-28-26-36(32-38)24-20-18-16-14-12-10-8-6-4-2;;/h25-28,31-32H,3-24,29-30,33-34H2,1-2H3;2*1H/q+2;;/p-2",FMCMGRUTZFJYDK-UHFFFAOYSA-L,630.440632648,0.0007413102413009,3.13000000000001,41.2,0.00000231,0.76,30.8,3.4029779601656,0.0332740335262001,25,gemini cationic,10.1111/cbdd.12236,10.1111/cbdd.12236,10.1111/cbdd.12236,,10.1111/cbdd.12236,10.1111/cbdd.12236,10.1111/cbdd.12236,calculated,calculated
,CCCCCCCCCCCn1cc[n+](COCCCOC[n+]2ccn(CCCCCCCCCCC)c2)c1.[Cl-].[Cl-],"InChI=1S/C33H62N4O2.2ClH/c1-3-5-7-9-11-13-15-17-19-22-34-24-26-36(30-34)32-38-28-21-29-39-33-37-27-25-35(31-37)23-20-18-16-14-12-10-8-6-4-2;;/h24-27,30-31H,3-23,28-29,32-33H2,1-2H3;2*1H/q+2;;/p-2",SSJFLOQWWIZEAA-UHFFFAOYSA-L,616.424982584,0.0008511380382023,3.07000000000004,42.4,0.00000234,0.74,29.6,3.30953621575788,0.0365331133075554,25,gemini cationic,10.1111/cbdd.12236,10.1111/cbdd.12236,10.1111/cbdd.12236,,10.1111/cbdd.12236,10.1111/cbdd.12236,10.1111/cbdd.12236,calculated,calculated
,CCCCCCCCCCCn1cc[n+](COCCOC[n+]2ccn(CCCCCCCCCCC)c2)c1.[Cl-].[Cl-],"InChI=1S/C32H60N4O2.2ClH/c1-3-5-7-9-11-13-15-17-19-21-33-23-25-35(29-33)31-37-27-28-38-32-36-26-24-34(30-36)22-20-18-16-14-12-10-8-6-4-2;;/h23-26,29-30H,3-22,27-28,31-32H2,1-2H3;2*1H/q+2;;/p-2",UMFKQEHECOCLAZ-UHFFFAOYSA-L,602.40933252,0.0009120108393559,3.04,42.5,0.00000237,0.72,29.5,3.2740405272634,0.0378531708967794,25,gemini cationic,10.1111/cbdd.12236,10.1111/cbdd.12236,10.1111/cbdd.12236,,10.1111/cbdd.12236,10.1111/cbdd.12236,10.1111/cbdd.12236,calculated,calculated
,CCCCCCCCCCN(C)C(=O)C(O)C(O)C(O)C(O)CO,"InChI=1S/C17H35NO6/c1-3-4-5-6-7-8-9-10-11-18(2)17(24)16(23)15(22)14(21)13(20)12-19/h13-16,19-23H,3-12H2,1-2H3",XLIVUQPRXGXTLQ-UHFFFAOYSA-N,349.24643784,,,35.7,,,,,,,non-ionic,,10.1016/j.ces.2022.118208,,10.1002/0471670561,,,,,
,CCCCCCCCCCN(C)C(=O)COCOCOCO,"InChI=1S/C16H33NO5/c1-3-4-5-6-7-8-9-10-11-17(2)16(19)12-20-14-22-15-21-13-18/h18H,3-15H2,1-2H3",BZFQFTYVBLPRIC-UHFFFAOYSA-N,319.235873156,0.00129,2.88941028970075,35.9,0.00000396,0.419328047266123,36.1,3.6,0.000248,20,non-ionic,10.1002/9781118228920.ch3,10.1002/9781118228920.ch5,,10.1006/jcis.2001.7704,10.1002/9781118228920.ch5,10.1002/9781118228920.ch5,calculated,10.1006/jcis.2001.7704,
N-decyl-N-methylgluconamide,CCCCCCCCCCN(C)C(=O)[C@H](O)[C@@H](O)[C@H](O)[C@H](O)CO,"InChI=1S/C17H35NO6/c1-3-4-5-6-7-8-9-10-11-18(2)17(24)16(23)15(22)14(21)13(20)12-19/h13-16,19-23H,3-12H2,1-2H3/t13-,14-,15+,16-/m1/s1",XLIVUQPRXGXTLQ-LVQVYYBASA-N,349.24643784,0.0013,2.88605664769316,36.1,0.00000396,0.42,36.1,3.6,0.000251,25,sugar-based non-ionic,10.1021/acs.iecr.6b02890,10.1016/j.jcis.2018.01.051,10.1016/j.molliq.2018.01.037,,10.1006/jcis.2001.7704,10.1006/jcis.2001.7704,10.1006/jcis.2001.7704,10.1006/jcis.2001.7704,
N-decyl-N-methyllactobionamide,CCCCCCCCCCN(C)C(=O)[C@H](O)[C@@H](O)[C@H](O[C@@H]1O[C@H](C)[C@H](O)[C@H](O)[C@H]1O)[C@H](O)CO,"InChI=1S/C23H45NO10/c1-4-5-6-7-8-9-10-11-12-24(3)22(32)19(30)18(29)21(15(26)13-25)34-23-20(31)17(28)16(27)14(2)33-23/h14-21,23,25-31H,4-13H2,1-3H3/t14-,15-,16+,17+,18-,19-,20-,21-,23+/m1/s1",HAILVPDDFCQWKK-ZGPJYTKZSA-N,495.30434664,0.0023,2.63827216398241,38.9,0.00000414,0.4,33.9,3.3,0.000501,20,sugar-based non-ionic,10.1021/acs.iecr.6b02890,10.1016/j.jcis.2018.01.051,10.1016/j.molliq.2018.01.037,,10.1006/jcis.2001.7704,10.1006/jcis.2001.7704,10.1006/jcis.2001.7704,10.1006/jcis.2001.7704,
,CCCCCCCCCCN(CCC[N+](C)(C)CCCCCCCCCC)C(=[N+])N(C)C.[Cl-].[Cl-],"InChI=1S/C28H60N4.2ClH/c1-7-9-11-13-15-17-19-21-24-31(28(29)30(3)4)25-23-27-32(5,6)26-22-20-18-16-14-12-10-8-2;;/h7-27H2,1-6H3;2*1H/q+2;;/p-2",HVKFATQMCHWIRC-UHFFFAOYSA-L,522.41950328,,,28.5,,,,,,,gemini cationic,,10.1016/j.ces.2022.118208,,10.1016/j.colsurfa.2012.11.004,,,,,
Decyl-D-maltonamide,CCCCCCCCCCNC(=O)C(O)C(O)C(OC1OC(CO)C(O)C(O)C1O)C(O)CO,"InChI=1S/C22H43NO11/c1-2-3-4-5-6-7-8-9-10-23-21(32)18(30)17(29)20(13(26)11-24)34-22-19(31)16(28)15(27)14(12-25)33-22/h13-20,22,24-31H,2-12H2,1H3,(H,23,32)",ASKUBOCBWBYYHH-UHFFFAOYSA-N,497.283611196,0.0013,2.88605664769316,33.9,0.00000457,0.36,38.1,3.6,0.000251,25,sugar-based non-ionic,10.1021/acs.iecr.6b02890,10.1016/j.jcis.2018.01.051,10.1016/j.molliq.2018.01.037,,10.1006/jcis.1996.0054,10.1006/jcis.1996.0054,10.1006/jcis.1996.0054,10.1006/jcis.1996.0054,
Arginine-N-octylamidedihydrochloride,CCCCCCCCCCNC(=O)C([N+])CCCNC([N+])N.[Cl-].[Cl-],"InChI=1S/C16H33N5O.2ClH/c1-2-3-4-5-6-7-8-9-12-20-15(22)14(17)11-10-13-21-16(18)19;;/h14,16,21H,2-13,18H2,1H3,(H,20,22);2*1H/q+2;;/p-2",ZYMKTLWGWRPIBH-UHFFFAOYSA-L,381.206216036,0.038,1.42021640338319,35,0.00000179,0.62,37,1.97472936095109,0.138798871554805,25,gemini cationic,10.1016/j.crci.2004.02.009,10.1016/j.ces.2022.118208,,10.1016/j.crci.2004.02.009,10.1016/j.crci.2004.02.009,10.1016/j.crci.2004.02.009,10.1016/j.crci.2004.02.009,calculated,calculated
"N,N-dimethyl-N,N-bis[2-(N-decylcarbamoyl)ethyl]ammoniumbromides",CCCCCCCCCCNC(=O)CC[N+](C)(C)CCC(=O)NCCCCCCCCCC.[Br-],"InChI=1S/C28H57N3O2.BrH/c1-5-7-9-11-13-15-17-19-23-29-27(32)21-25-31(3,4)26-22-28(33)30-24-20-18-16-14-12-10-8-6-2;/h5-26H2,1-4H3,(H-,29,30,32,33);1H",MWXGQDLRHHRCPC-UHFFFAOYSA-N,547.371240196,0.0001,4,25,0.00000339,0.49,47,4.69754323891871,0.00911764949506278,25,cationic,10.1016/j.colsurfa.2015.01.050,10.1016/j.ces.2022.118208,,10.1016/j.colsurfa.2015.01.050,,,10.1016/j.colsurfa.2015.01.050,calculated,calculated
Decyl-D-lactobionamide,CCCCCCCCCCNC(=O)[C@H](O)[C@@H](O)[C@H](O[C@@H]1O[C@H](C)[C@H](O)[C@H](O)[C@H]1O)[C@H](O)CO,"InChI=1S/C22H43NO10/c1-3-4-5-6-7-8-9-10-11-23-21(31)18(29)17(28)20(14(25)12-24)33-22-19(30)16(27)15(26)13(2)32-22/h13-20,22,24-30H,3-12H2,1-2H3,(H,23,31)/t13-,14-,15+,16+,17-,18-,19-,20-,22+/m1/s1",FTINVVBHACZJEA-QBCBQYGVSA-N,481.288696576,0.0013,2.88605664769316,33,0.00000396,0.42,36.1,3.6,0.00025,25,sugar-based non-ionic,10.1021/acs.iecr.6b02890,10.1016/j.jcis.2018.01.051,10.1016/j.molliq.2018.01.037,,10.1006/jcis.2001.7704,10.1006/jcis.2001.7704,10.1006/jcis.2001.7704,10.1006/jcis.2001.7704,
,CCCCCCCCCCOC(=O)C(C)[N+](C)(C)CC[N+](C)(C)C(C)C(=O)OCCCCCCCCCC.[Br-].[Br-],"InChI=1S/C32H66N2O4.2BrH/c1-9-11-13-15-17-19-21-23-27-37-31(35)29(3)33(5,6)25-26-34(7,8)30(4)32(36)38-28-24-22-20-18-16-14-12-10-2;;/h29-30H,9-28H2,1-8H3;2*1H/q+2;;/p-2",VAHPYBVNMYMQFQ-UHFFFAOYSA-L,700.338932792,,,28.5,,,,,,,gemini cationic,,10.1016/j.ces.2022.118208,,10.1246/cl.2012.1096,,,,,
"1-O-decanoyl-D,L-xylitol",CCCCCCCCCCOC(=O)C([C@@H](O)C(O)[C@@H](O)CO)[C@@H](O)CO,"InChI=1S/C18H36O8/c1-2-3-4-5-6-7-8-9-10-26-18(25)15(13(21)11-19)17(24)16(23)14(22)12-20/h13-17,19-24H,2-12H2,1H3/t13-,14-,15?,16?,17+/m0/s1",IJFOSEKLWFRDMT-VAZJSPDQSA-N,380.241018112,0.0018,2.74472749489669,26,,,45.97,,,25,sugar-based non-ionic,10.1021/acs.iecr.6b02890,10.1016/j.jcis.2018.01.051,10.1016/j.molliq.2018.01.037,,,calculated,,,