IUPAC_name,SMILES,InChI,InChIKey,Molecular_Weight,CMC,pCMC,AW_ST_CMC,Gamma_max,Area_min,Pi_CMC,PC20,C20,Temp_Celsius,Surfactant_Type,Ref_CMC,Ref_AW_ST_CMC,SubRef_CMC,SubRef_AW_ST_CMC,Ref_Gamma_max,Ref_Pi_CMC,Ref_Area_min,Ref_PC20,Ref_C20
,CCC[Si](O)C[Si](CCC)(CCCSCCCOCCOCCOCCOCCOCCOCCOCCOCCOCCOCCOCCOCCOCCOCCOCCOCCOCCOCCOCCOCCOCCOCCOCCOCCOCCOCCOCCOC(C)COC(C)COC(C)COC(C)COC(C)COC(C)CO)C[Si](O)CCC,"InChI=1S/C89H184O36SSi3/c1-10-72-127(91)82-129(74-12-3,83-128(92)73-11-2)75-14-71-126-70-13-15-93-16-17-94-18-19-95-20-21-96-22-23-97-24-25-98-26-27-99-28-29-100-30-31-101-32-33-102-34-35-103-36-37-104-38-39-105-40-41-106-42-43-107-44-45-108-46-47-109-48-49-110-50-51-111-52-53-112-54-55-113-56-57-114-58-59-115-60-61-116-62-63-117-64-65-118-66-67-119-68-69-120-85(5)77-122-87(7)79-124-89(9)81-125-88(8)80-123-86(6)78-121-84(4)76-90/h84-92H,10-83H2,1-9H3",HSRUSQRTUJUDSX-UHFFFAOYSA-N,1945.159582798,0.0000661,4.17979854051436,41.6,0.00000186,0.89,30.9,5.11,0.00000778,25,non-ionic,10.1021/acs.jpcb.8b10727,10.1021/acs.jpcb.8b10727,,10.1021/acs.jpcb.8b10727,10.1021/acs.jpcb.8b10727,10.1021/acs.jpcb.8b10727,10.1021/acs.jpcb.8b10727,10.1021/acs.jpcb.8b10727,
,CCCn1cc[n+](COCCCCCCOC[n+]2ccn(CCC)c2)c1.[Cl-].[Cl-],"InChI=1S/C20H36N4O2.2ClH/c1-3-9-21-11-13-23(17-21)19-25-15-7-5-6-8-16-26-20-24-14-12-22(18-24)10-4-2;;/h11-14,17-18H,3-10,15-16,19-20H2,1-2H3;2*1H/q+2;;/p-2",UBYVHXYYTJUQKD-UHFFFAOYSA-L,434.221531752,0.0035481338923357,2.45000000000001,42.6,0.00000259,0.62,16.9,2.66190631442284,0.0698150054570991,25,gemini cationic,10.1111/cbdd.12236,10.1111/cbdd.12236,10.1111/cbdd.12236,,10.1111/cbdd.12236,10.1111/cbdd.12236,10.1111/cbdd.12236,calculated,calculated
,CCCn1cc[n+](COCCCCCOC[n+]2ccn(CCC)c2)c1.[Cl-].[Cl-],"InChI=1S/C19H34N4O2.2ClH/c1-3-8-20-10-12-22(16-20)18-24-14-6-5-7-15-25-19-23-13-11-21(17-23)9-4-2;;/h10-13,16-17H,3-9,14-15,18-19H2,1-2H3;2*1H/q+2;;/p-2",CDCGSFBFXLPLHA-UHFFFAOYSA-L,420.205881688,0.0038904514499428,2.41,55.7,0.0000026,0.62,16.3,2.326910875159,0.0975967705088708,25,gemini cationic,10.1111/cbdd.12236,10.1111/cbdd.12236,10.1111/cbdd.12236,,10.1111/cbdd.12236,10.1111/cbdd.12236,10.1111/cbdd.12236,calculated,calculated
,CCCn1cc[n+](COCCCCOC[n+]2ccn(CCC)c2)c1.[Cl-].[Cl-],"InChI=1S/C18H32N4O2.2ClH/c1-3-7-19-9-11-21(15-19)17-23-13-5-6-14-24-18-22-12-10-20(16-22)8-4-2;;/h9-12,15-16H,3-8,13-14,17-18H2,1-2H3;2*1H/q+2;;/p-2",JMBCISNUIZRMDE-UHFFFAOYSA-L,406.190231624,0.0040738027780411,2.39,56.6,0.00000263,0.6,15.4,2.2878783338713,0.101481543561076,25,gemini cationic,10.1111/cbdd.12236,10.1111/cbdd.12236,10.1111/cbdd.12236,,10.1111/cbdd.12236,10.1111/cbdd.12236,10.1111/cbdd.12236,calculated,calculated
,CCCn1cc[n+](COCCCOC[n+]2ccn(CCC)c2)c1.[Cl-].[Cl-],"InChI=1S/C17H30N4O2.2ClH/c1-3-6-18-8-10-20(14-18)16-22-12-5-13-23-17-21-11-9-19(15-21)7-4-2;;/h8-11,14-15H,3-7,12-13,16-17H2,1-2H3;2*1H/q+2;;/p-2",HWKGGCKSJFVWTI-UHFFFAOYSA-L,392.17458156,0.0047863009232263,2.32000000000001,57.8,0.00000266,0.58,14.2,2.19269010337307,0.111616085583008,25,gemini cationic,10.1111/cbdd.12236,10.1111/cbdd.12236,10.1111/cbdd.12236,,10.1111/cbdd.12236,10.1111/cbdd.12236,10.1111/cbdd.12236,calculated,calculated
,CCCn1cc[n+](COCCOC[n+]2ccn(CCC)c2)c1.[Cl-].[Cl-],"InChI=1S/C16H28N4O2.2ClH/c1-3-5-17-7-9-19(13-17)15-21-11-12-22-16-20-10-8-18(14-20)6-4-2;;/h7-10,13-14H,3-6,11-12,15-16H2,1-2H3;2*1H/q+2;;/p-2",OVRGBYODZGUYFZ-UHFFFAOYSA-L,378.158931496,0.0041686938347033,2.38000000000001,59.8,0.00000269,0.56,12.2,2.21069954267302,0.109623935065911,25,gemini cationic,10.1111/cbdd.12236,10.1111/cbdd.12236,10.1111/cbdd.12236,,10.1111/cbdd.12236,10.1111/cbdd.12236,10.1111/cbdd.12236,calculated,calculated
,CCOCCOCCOCCOCCOCCOC(O)C(C)C,"InChI=1S/C16H34O7/c1-4-18-5-6-19-7-8-20-9-10-21-11-12-22-13-14-23-16(17)15(2)3/h15-17H,4-14H2,1-3H3",BFMJNSUYSUWDOQ-UHFFFAOYSA-N,338.230453428,0.91,0.0409586076789064,,,,,,,25,non-ionic,10.1002/9781118228920.ch3,,,,,,,,
,CCOCCOCCOCCOCCOCCOC(O)C(CC)CC,"InChI=1S/C18H38O7/c1-4-17(5-2)18(19)25-16-15-24-14-13-23-12-11-22-10-9-21-8-7-20-6-3/h17-19H,4-16H2,1-3H3",UJFNPJIFGCCIEJ-UHFFFAOYSA-N,366.261753556,0.1,1,,,,,,,25,non-ionic,10.1002/9781118228920.ch3,,,,,,,,
,CCOCCOCCOCCOCCOCCOCCOCCOCCOCCOCCOCCOCCOCCOCCOCCSCC[Si](C)(O[Si](C)(C)C)O[Si](C)(C)C,"InChI=1S/C41H90O17SSi3/c1-9-42-10-11-43-12-13-44-14-15-45-16-17-46-18-19-47-20-21-48-22-23-49-24-25-50-26-27-51-28-29-52-30-31-53-32-33-54-34-35-55-36-37-56-38-39-59-40-41-62(8,57-60(2,3)4)58-61(5,6)7/h9-41H2,1-8H3",NAWOMHQONYIBKI-UHFFFAOYSA-N,970.52065201,0.00018,3.74472749489669,28,0.00000183,0.91,44,6.11,0.000000768,25,non-ionic,10.1016/j.molliq.2019.111158,,10.1016/j.molliq.2019.111158,,10.1016/j.molliq.2019.111158,,10.1016/j.molliq.2019.111158,,
,CCOCCOCCOCCOCCOCCOCCOCCOCCOCCOCCOCCOCCOCCOCCOCCSCC[Si](C)(O[Si](C)(C)c1cc[c]cc1)O[Si](C)(C)c1cc[c]cc1,"InChI=1S/C51H92O17SSi3/c1-7-52-18-19-53-20-21-54-22-23-55-24-25-56-26-27-57-28-29-58-30-31-59-32-33-60-34-35-61-36-37-62-38-39-63-40-41-64-42-43-65-44-45-66-46-47-69-48-49-72(6,67-70(2,3)50-14-10-8-11-15-50)68-71(4,5)51-16-12-9-13-17-51/h10-17H,7,18-49H2,1-6H3",CKTGZYPNQCUNGO-UHFFFAOYSA-N,1092.536302074,0.0000241,4.61798295742513,40.4,0.00000097,1.71,32.1,6.43,0.000000371,25,non-ionic,10.1016/j.molliq.2019.111158,,10.1016/j.molliq.2019.111158,,10.1016/j.molliq.2019.111158,10.1016/j.molliq.2019.111158,10.1016/j.molliq.2019.111158,10.1016/j.molliq.2019.111158,
,CCOCCOCCOCCOCCOCCOCCOCCOCCOCCOCCOCCOCCOCCOCCOCCSCC[Si](O[Si](C)(C)C)(O[Si](C)(C)C)O[Si](C)(C)C,"InChI=1S/C43H96O18SSi4/c1-11-44-12-13-45-14-15-46-16-17-47-18-19-48-20-21-49-22-23-50-24-25-51-26-27-52-28-29-53-30-31-54-32-33-55-34-35-56-36-37-57-38-39-58-40-41-62-42-43-66(59-63(2,3)4,60-64(5,6)7)61-65(8,9)10/h11-43H2,1-10H3",YSFVUBURGQVLDX-UHFFFAOYSA-N,1044.539443352,0.00007,4.15490195998574,26.7,0.00000165,1.01,45.3,6.47,0.000000335,25,non-ionic,10.1016/j.molliq.2019.111158,,10.1016/j.molliq.2019.111158,,10.1016/j.molliq.2019.111158,,10.1016/j.molliq.2019.111158,,
,CCOCCOCCOCCOCCOCCOCCOCCOCCOCCOCCOCCOCCOCCOCCOCCSCC[Si](O[Si](C)(C)c1cc[c]cc1)(O[Si](C)(C)c1cc[c]cc1)O[Si](C)(C)c1cc[c]cc1,"InChI=1S/C58H99O18SSi4/c1-8-59-24-25-60-26-27-61-28-29-62-30-31-63-32-33-64-34-35-65-36-37-66-38-39-67-40-41-68-42-43-69-44-45-70-46-47-71-48-49-72-50-51-73-52-53-77-54-55-81(74-78(2,3)56-18-12-9-13-19-56,75-79(4,5)57-20-14-10-15-21-57)76-80(6,7)58-22-16-11-17-23-58/h12-23H,8,24-55H2,1-7H3",OPDSKSCGZVUCIJ-UHFFFAOYSA-N,1227.562918448,0.0000163,4.78781239559604,35.4,0.00000162,1.03,37.1,6.26,0.000000564,25,non-ionic,10.1016/j.molliq.2019.111158,,10.1016/j.molliq.2019.111158,,10.1016/j.molliq.2019.111158,10.1016/j.molliq.2019.111158,10.1016/j.molliq.2019.111158,10.1016/j.molliq.2019.111158,
,CC[Si](O)C[Si](C)(CCCSCCCOCCOCCOCCOCCOCCOCCOCCOCCOCCOCCOCCOCCOCCOCCOCCOCCOCCOCCOCCOCCOCCOCCOCCOCCOCCOCCOCCOC(C)COC(C)COC(C)COC(C)COC(C)COC(C)CO)C[Si](O)CC,"InChI=1S/C85H176O36SSi3/c1-10-123(87)78-125(9,79-124(88)11-2)71-13-70-122-69-12-14-89-15-16-90-17-18-91-19-20-92-21-22-93-23-24-94-25-26-95-27-28-96-29-30-97-31-32-98-33-34-99-35-36-100-37-38-101-39-40-102-41-42-103-43-44-104-45-46-105-47-48-106-49-50-107-51-52-108-53-54-109-55-56-110-57-58-111-59-60-112-61-62-113-63-64-114-65-66-115-67-68-116-81(4)73-118-83(6)75-120-85(8)77-121-84(7)76-119-82(5)74-117-80(3)72-86/h80-88H,10-79H2,1-9H3",VXFAECFMCFBVAS-UHFFFAOYSA-N,1889.096982542,0.0000812,4.09044397075883,27.9,0.00000242,0.69,44.6,5.81,0.00000155,25,non-ionic,10.1021/acs.jpcb.8b10727,10.1021/acs.jpcb.8b10727,,10.1021/acs.jpcb.8b10727,10.1021/acs.jpcb.8b10727,10.1021/acs.jpcb.8b10727,10.1021/acs.jpcb.8b10727,10.1021/acs.jpcb.8b10727,
,CC[Si](O)C[Si](CC)(CCCSCCCOCCOCCOCCOCCOCCOCCOCCOCCOCCOCCOCCOCCOCCOCCOCCOCCOCCOCCOCCOCCOCCOCCOCCOCCOCCOCCOCCOC(C)COC(C)COC(C)COC(C)COC(C)COC(C)CO)C[Si](O)CC,"InChI=1S/C86H178O36SSi3/c1-10-124(88)79-126(12-3,80-125(89)11-2)72-14-71-123-70-13-15-90-16-17-91-18-19-92-20-21-93-22-23-94-24-25-95-26-27-96-28-29-97-30-31-98-32-33-99-34-35-100-36-37-101-38-39-102-40-41-103-42-43-104-44-45-105-46-47-106-48-49-107-50-51-108-52-53-109-54-55-110-56-57-111-58-59-112-60-61-113-62-63-114-64-65-115-66-67-116-68-69-117-82(5)74-119-84(7)76-121-86(9)78-122-85(8)77-120-83(6)75-118-81(4)73-87/h81-89H,10-80H2,1-9H3",HHWPPQHZGLJRIK-UHFFFAOYSA-N,1903.112632606,0.0000708,4.14996674231023,39.8,0.00000198,0.84,32.7,5.28,0.00000524,25,non-ionic,10.1021/acs.jpcb.8b10727,10.1021/acs.jpcb.8b10727,,10.1021/acs.jpcb.8b10727,10.1021/acs.jpcb.8b10727,10.1021/acs.jpcb.8b10727,10.1021/acs.jpcb.8b10727,10.1021/acs.jpcb.8b10727,
,CCn1cc[n+](COCCCCCCOC[n+]2ccn(CC)c2)c1.[Cl-].[Cl-],"InChI=1S/C18H32N4O2.2ClH/c1-3-19-9-11-21(15-19)17-23-13-7-5-6-8-14-24-18-22-12-10-20(4-2)16-22;;/h9-12,15-16H,3-8,13-14,17-18H2,1-2H3;2*1H/q+2;;/p-2",RMKRFZOKKJWWME-UHFFFAOYSA-L,406.190231624,0.0042657951880159,2.37,44.8,0.00000266,0.59,27.2,2.52803987167482,0.0798153153170337,25,gemini cationic,10.1111/cbdd.12236,10.1111/cbdd.12236,10.1111/cbdd.12236,,10.1111/cbdd.12236,10.1111/cbdd.12236,10.1111/cbdd.12236,calculated,calculated
,CCn1cc[n+](COCCCCCOC[n+]2ccn(CC)c2)c1.[Cl-].[Cl-],"InChI=1S/C17H30N4O2.2ClH/c1-3-18-8-10-20(14-18)16-22-12-6-5-7-13-23-17-21-11-9-19(4-2)15-21;;/h8-11,14-15H,3-7,12-13,16-17H2,1-2H3;2*1H/q+2;;/p-2",AHGGFNSFRDRBGY-UHFFFAOYSA-L,392.17458156,0.0046773514128719,2.33000000000001,56.6,0.00000264,0.6,15.4,2.22826515836422,0.107715136839879,25,gemini cationic,10.1111/cbdd.12236,10.1111/cbdd.12236,10.1111/cbdd.12236,,10.1111/cbdd.12236,10.1111/cbdd.12236,10.1111/cbdd.12236,calculated,calculated
,CCn1cc[n+](COCCCCOC[n+]2ccn(CC)c2)c1.[Cl-].[Cl-],"InChI=1S/C16H28N4O2.2ClH/c1-3-17-7-9-19(13-17)15-21-11-5-6-12-22-16-20-10-8-18(4-2)14-20;;/h7-10,13-14H,3-6,11-12,15-16H2,1-2H3;2*1H/q+2;;/p-2",BNLQCXTYQYJIBN-UHFFFAOYSA-L,378.158931496,0.0050118723362727,2.3,57.7,0.00000267,0.58,14.3,2.1753536967159,0.113567977945341,25,gemini cationic,10.1111/cbdd.12236,10.1111/cbdd.12236,10.1111/cbdd.12236,,10.1111/cbdd.12236,10.1111/cbdd.12236,10.1111/cbdd.12236,calculated,calculated
,CCn1cc[n+](COCCCOC[n+]2ccn(CC)c2)c1.[Cl-].[Cl-],"InChI=1S/C15H26N4O2.2ClH/c1-3-16-6-8-18(12-16)14-20-10-5-11-21-15-19-9-7-17(4-2)13-19;;/h6-9,12-13H,3-5,10-11,14-15H2,1-2H3;2*1H/q+2;;/p-2",XYUYHYIMHDAXMC-UHFFFAOYSA-L,364.143281432,0.0054954087385762,2.26,58.9,0.0000027,0.56,13.1,2.11078889893418,0.121142359647884,25,gemini cationic,10.1111/cbdd.12236,10.1111/cbdd.12236,10.1111/cbdd.12236,,10.1111/cbdd.12236,10.1111/cbdd.12236,10.1111/cbdd.12236,calculated,calculated
,CCn1cc[n+](COCCOC[n+]2ccn(CC)c2)c1.[Cl-].[Cl-],"InChI=1S/C14H24N4O2.2ClH/c1-3-15-5-7-17(11-15)13-19-9-10-20-14-18-8-6-16(4-2)12-18;;/h5-8,11-12H,3-4,9-10,13-14H2,1-2H3;2*1H/q+2;;/p-2",YLALXAUFDRBFJK-UHFFFAOYSA-L,350.127631368,0.0058884365535558,2.23000000000001,60.1,0.00000271,0.54,11.9,2.05548549225577,0.128030662591313,25,gemini cationic,10.1111/cbdd.12236,10.1111/cbdd.12236,10.1111/cbdd.12236,,10.1111/cbdd.12236,10.1111/cbdd.12236,10.1111/cbdd.12236,calculated,calculated
,COCCCOCCNC(=O)CC(F)(F)C(F)(F)C(F)(F)C(F)(F)C(F)(F)C(F)(F)C(F)(F)C(F)(F)C(F)(F)C(F)(F)F,"InChI=1S/C18H16F21NO3/c1-42-4-2-5-43-6-3-40-8(41)7-9(19,20)10(21,22)11(23,24)12(25,26)13(27,28)14(29,30)15(31,32)16(33,34)17(35,36)18(37,38)39/h2-7H2,1H3,(H,40,41)",YMKGRTYFCALSJE-UHFFFAOYSA-N,693.079485992,0.0000002999,6.52302353424047,,,,,,,25,non-ionic,10.1021/ie4016232,,,,,,,,
,COCCOCCOCCCC(F)(F)C(F)(F)C(F)(F)C(F)(F)C(F)(F)C(F)(F)F,"InChI=1S/C14H17F13O3/c1-28-5-6-30-8-7-29-4-2-3-9(15,16)10(17,18)11(19,20)12(21,22)13(23,24)14(25,26)27/h2-8H2,1H3",BSRCKKYFWMIYFL-UHFFFAOYSA-N,480.097011264,0.00007998,4.0970186002025,,,,,,,25,non-ionic,10.1021/ie4016232,,,,,,,,
,COCCOCCOCCCC(F)(F)C(F)(F)C(F)(F)C(F)(F)C(F)(F)C(F)F,"InChI=1S/C14H18F12O3/c1-27-5-6-29-8-7-28-4-2-3-10(17,18)12(21,22)14(25,26)13(23,24)11(19,20)9(15)16/h9H,2-8H2,1H3",NZZWJHBDYMOPKT-UHFFFAOYSA-N,462.106433076,0.0002999,3.52302353424047,,,,,,,25,non-ionic,10.1021/ie4016232,,,,,,,,
,COCCOCCOCCCC(F)(F)C(F)(F)C(F)(F)C(F)(F)F,"InChI=1S/C12H17F9O3/c1-22-5-6-24-8-7-23-4-2-3-9(13,14)10(15,16)11(17,18)12(19,20)21/h2-8H2,1H3",PDICJEQLYFBTQA-UHFFFAOYSA-N,380.103398384,0.002,2.69897000433602,,,,,,,25,non-ionic,10.1021/ie4016232,,,,,,,,
,COCCOCCOCCCC(F)(F)C(F)(F)C(F)(F)C(F)F,"InChI=1S/C12H18F8O3/c1-21-5-6-23-8-7-22-4-2-3-10(15,16)12(19,20)11(17,18)9(13)14/h9H,2-8H2,1H3",OQDILVOUWJFZCH-UHFFFAOYSA-N,362.112820196,0.007998,2.0970186002025,,,,,,,25,non-ionic,10.1021/ie4016232,,,,,,,,
,COCCOCCOCCCOCCOCCOCCNC(=O)CC(F)(F)C(F)(F)C(F)(F)C(F)(F)C(F)(F)C(F)(F)C(F)(F)C(F)(F)F,"InChI=1S/C24H32F17NO7/c1-44-7-8-48-12-9-45-4-2-5-46-10-13-49-14-11-47-6-3-42-16(43)15-17(25,26)18(27,28)19(29,30)20(31,32)21(33,34)22(35,36)23(37,38)24(39,40)41/h2-15H2,1H3,(H,42,43)",MJXNQMVALZBNLX-UHFFFAOYSA-N,769.190732104,0.00001199,4.92118081690115,,,,,,,25,non-ionic,10.1021/ie4016232,,,,,,,,
,COCCOCCOCCCOCCOCCOCCNC(=O)CC(F)(F)C(F)(F)C(F)(F)C(F)(F)C(F)(F)C(F)(F)F,"InChI=1S/C22H32F13NO7/c1-38-7-8-42-12-9-39-4-2-5-40-10-13-43-14-11-41-6-3-36-16(37)15-17(23,24)18(25,26)19(27,28)20(29,30)21(31,32)22(33,34)35/h2-15H2,1H3,(H,36,37)",JFJYMZSHOZXOEV-UHFFFAOYSA-N,669.197119224,0.0005495,3.26003230324049,,,,,,,25,non-ionic,10.1021/ie4016232,,,,,,,,
,COCCOCCOCCOCCOCCOCCOCCCSCCC[Si](C)(O[Si](C)(C)C)O[Si](C)(C)C,"InChI=1S/C26H60O9SSi3/c1-27-12-13-29-16-17-31-20-21-33-23-22-32-19-18-30-15-14-28-11-9-24-36-25-10-26-39(8,34-37(2,3)4)35-38(5,6)7/h9-26H2,1-8H3",LORUOSGNHBXLCT-UHFFFAOYSA-N,632.32658409,0.0000479,4.31966448658544,22.5,0.00000547,0.3,50,5.23,0.00000591,25,non-ionic,10.1080/01932691.2018.1561303,10.1080/01932691.2018.1561303,,10.1080/01932691.2018.1561303,10.1080/01932691.2018.1561303,10.1080/01932691.2018.1561303,10.1080/01932691.2018.1561303,10.1080/01932691.2018.1561303,
,COCCOCCOCCOCCOCCOCCOCCOCCCSCCC[Si](C)(O[Si](C)(C)C)O[Si](C)(C)C,"InChI=1S/C28H64O10SSi3/c1-29-12-13-31-16-17-33-20-21-35-24-25-36-23-22-34-19-18-32-15-14-30-11-9-26-39-27-10-28-42(8,37-40(2,3)4)38-41(5,6)7/h9-28H2,1-8H3",MGKHFLDIFSBFKF-UHFFFAOYSA-N,676.352798838,0.0000524,4.28066871301627,22.9,0.00000547,0.37,49.6,5.52,0.00000301,25,non-ionic,10.1080/01932691.2018.1561303,10.1080/01932691.2018.1561303,,10.1080/01932691.2018.1561303,10.1080/01932691.2018.1561303,10.1080/01932691.2018.1561303,10.1080/01932691.2018.1561303,10.1080/01932691.2018.1561303,
,COCCOCCOCCOCCOCCOCCOCCOCCOCCCSCCC[Si](C)(O[Si](C)(C)C)O[Si](C)(C)C,"InChI=1S/C30H68O11SSi3/c1-31-12-13-33-16-17-35-20-21-37-24-25-39-27-26-38-23-22-36-19-18-34-15-14-32-11-9-28-42-29-10-30-45(8,40-43(2,3)4)41-44(5,6)7/h9-30H2,1-8H3",WYXUDJQUUPLLTB-UHFFFAOYSA-N,720.379013586,0.000135,3.86966623150499,23.1,0.00000392,0.48,49.4,5.08,0.00000833,25,non-ionic,10.1080/01932691.2018.1561303,10.1080/01932691.2018.1561303,,10.1080/01932691.2018.1561303,10.1080/01932691.2018.1561303,10.1080/01932691.2018.1561303,10.1080/01932691.2018.1561303,10.1080/01932691.2018.1561303,
,COCCOCCOCCOCCOCCOCCOCCOCCOCCCSCCC[Si](O[Si]C(C)C)(O[Si](C)(C)C)O[Si](C)(C)C,"InChI=1S/C32H72O12SSi4/c1-32(2)46-42-49(43-47(4,5)6,44-48(7,8)9)31-11-30-45-29-10-12-34-15-16-36-19-20-38-23-24-40-27-28-41-26-25-39-22-21-37-18-17-35-14-13-33-3/h32H,10-31H2,1-9H3",JCSWYLCETDFTCM-UHFFFAOYSA-N,792.382154864,0.0000776,4.11013827874181,23.6,0.00000379,0.44,48.9,5.31,0.00000491,25,non-ionic,10.1080/01932691.2018.1561303,10.1080/01932691.2018.1561303,,10.1080/01932691.2018.1561303,10.1080/01932691.2018.1561303,10.1080/01932691.2018.1561303,10.1080/01932691.2018.1561303,10.1080/01932691.2018.1561303,
2-[2-[2-[2-[2-[2-[2-[2-(2-methoxyethoxy)ethoxy]ethoxy]ethoxy]ethoxy]ethoxy]ethoxy]ethoxy]ethanol,COCCOCCOCCOCCOCCOCCOCCOCCOCCO,"InChI=1S/C19H40O10/c1-21-4-5-23-8-9-25-12-13-27-16-17-29-19-18-28-15-14-26-11-10-24-7-6-22-3-2-20/h20H,2-19H2,1H3",VVHAVLIDQNWEKF-UHFFFAOYSA-N,428.26214748,0.013,1.88605664769316,,,,,,,25,sugar-based non-ionic,10.1021/acs.jpcb.1c05264,,10.1002/9781118228920,,,,,,
,COCCOCCOCCOCCOCCOCCOCCOCCOCCOCCOCCCSCCC[Si](C)(O[Si](C)(C)C)O[Si](C)(C)C,"InChI=1S/C34H76O13SSi3/c1-35-12-13-37-16-17-39-20-21-41-24-25-43-28-29-45-31-30-44-27-26-42-23-22-40-19-18-38-15-14-36-11-9-32-48-33-10-34-51(8,46-49(2,3)4)47-50(5,6)7/h9-34H2,1-8H3",MZMPWNHDMJUKRW-UHFFFAOYSA-N,808.431443082,0.000145,3.83863199776503,21.5,0.00000348,0.44,51,5.31,0.00000373,25,non-ionic,10.1080/01932691.2018.1561303,10.1080/01932691.2018.1561303,,10.1080/01932691.2018.1561303,10.1080/01932691.2018.1561303,10.1080/01932691.2018.1561303,10.1080/01932691.2018.1561303,10.1080/01932691.2018.1561303,
,COCCOCCOCCOCCOCCOCCOCCOCCOCCOCCOCCCSCCC[Si](O[Si]C(C)C)(O[Si](C)(C)C)O[Si](C)(C)C,"InChI=1S/C36H80O14SSi4/c1-36(2)52-48-55(49-53(4,5)6,50-54(7,8)9)35-11-34-51-33-10-12-38-15-16-40-19-20-42-23-24-44-27-28-46-31-32-47-30-29-45-26-25-43-22-21-41-18-17-39-14-13-37-3/h36H,10-35H2,1-9H3",WJGHZQCYGFOJSJ-UHFFFAOYSA-N,880.43458436,0.0000977,4.01010543628123,21.2,0.00000308,0.54,51.3,5.84,0.00000145,25,non-ionic,10.1080/01932691.2018.1561303,10.1080/01932691.2018.1561303,,10.1080/01932691.2018.1561303,10.1080/01932691.2018.1561303,10.1080/01932691.2018.1561303,10.1080/01932691.2018.1561303,10.1080/01932691.2018.1561303,
"methanesulfonate-1-(3,3,4,4,5,5,6,6,7,7,8,8,8-tridecafluorooctyl)-2-[12-[1-(3,3,4,4,5,5,6,6,7,7,8,8,8-tridecafluorooctyl)pyridin-1-ium-2-yl]dodecyl]pyridin-1-ium",CS(=O)(=O)[O-].CS(=O)(=O)[O-].FC(F)(F)C(F)(F)C(F)(F)C(F)(F)C(F)(F)C(F)(F)CC[n+]1ccccc1CCCCCCCCCCCCc1cccc[n+]1CCC(F)(F)C(F)(F)C(F)(F)C(F)(F)C(F)(F)C(F)(F)F,"InChI=1S/C38H40F26N2.2CH4O3S/c39-27(40,29(43,44)31(47,48)33(51,52)35(55,56)37(59,60)61)19-23-65-21-13-11-17-25(65)15-9-7-5-3-1-2-4-6-8-10-16-26-18-12-14-22-66(26)24-20-28(41,42)30(45,46)32(49,50)34(53,54)36(57,58)38(62,63)64;2*1-5(2,3)4/h11-14,17-18,21-22H,1-10,15-16,19-20,23-24H2;2*1H3,(H,2,3,4)/q+2;;/p-2",VWLVRYOEHANMEG-UHFFFAOYSA-L,1208.238212912,0.00105,2.97881070093006,,,,,,,25,gemini cationic,10.1063/5.0051623,,10.1002/9781119075691.ch43,,,,,,
"methanesulfonate-1-(3,3,4,4,5,5,6,6,7,7,8,8,8-tridecafluorooctyl)-2-[8-[1-(3,3,4,4,5,5,6,6,7,7,8,8,8-tridecafluorooctyl)pyridin-1-ium-2-yl]octyl]pyridin-1-ium",CS(=O)(=O)[O-].CS(=O)(=O)[O-].FC(F)(F)C(F)(F)C(F)(F)C(F)(F)C(F)(F)C(F)(F)CC[n+]1ccccc1CCCCCCCCc1cccc[n+]1CCC(F)(F)C(F)(F)C(F)(F)C(F)(F)C(F)(F)C(F)(F)F,"InChI=1S/C34H32F26N2.2CH4O3S/c35-23(36,25(39,40)27(43,44)29(47,48)31(51,52)33(55,56)57)15-19-61-17-9-7-13-21(61)11-5-3-1-2-4-6-12-22-14-8-10-18-62(22)20-16-24(37,38)26(41,42)28(45,46)30(49,50)32(53,54)34(58,59)60;2*1-5(2,3)4/h7-10,13-14,17-18H,1-6,11-12,15-16,19-20H2;2*1H3,(H,2,3,4)/q+2;;/p-2",AZTXRWCAKCPDBC-UHFFFAOYSA-L,1152.175612656,0.0014,2.85387196432176,,,,,,,25,gemini cationic,10.1063/5.0051623,,10.1002/9781119075691.ch43,,,,,,
"methanesulfonate;1-(3,3,4,4,5,5,6,6,7,7,8,8,8-tridecafluorooctyl)-2-[4-[1-(3,3,4,4,5,5,6,6,7,7,8,8,8-tridecafluorooctyl)pyridin-1-ium-2-yl]butyl]pyridin-1-ium",CS(=O)(=O)[O-].CS(=O)(=O)[O-].FC(F)(F)C(F)(F)C(F)(F)C(F)(F)C(F)(F)C(F)(F)CC[n+]1ccccc1CCCCc1cccc[n+]1CCC(F)(F)C(F)(F)C(F)(F)C(F)(F)C(F)(F)C(F)(F)F,"InChI=1S/C30H24F26N2.2CH4O3S/c31-19(32,21(35,36)23(39,40)25(43,44)27(47,48)29(51,52)53)11-15-57-13-5-3-9-17(57)7-1-2-8-18-10-4-6-14-58(18)16-12-20(33,34)22(37,38)24(41,42)26(45,46)28(49,50)30(54,55)56;2*1-5(2,3)4/h3-6,9-10,13-14H,1-2,7-8,11-12,15-16H2;2*1H3,(H,2,3,4)/q+2;;/p-2",BFGSIVAAWGNGKE-UHFFFAOYSA-L,1096.1130124,0.001932,2.71399287792053,,,,,,,25,gemini cationic,10.1063/5.0051623,,10.1002/9781119075691.ch43,,,,,,
,C[N+](C)(CCO)CCC[Si](O[Si](C)(C)C)(O[Si](C)(C)C)O[Si](C)(C)C.[Cl-],"InChI=1S/C16H44NO4Si4.ClH/c1-17(2,14-15-18)13-12-16-25(19-22(3,4)5,20-23(6,7)8)21-24(9,10)11;/h18H,12-16H2,1-11H3;1H/q+1;/p-1",OZJSHMHJJJMBAP-UHFFFAOYSA-M,461.203592688,0.0114,1.94309514866353,21.2,0.00000101,1.65,51.3,4.61386466322092,0.0099134321043041,25,cationic,10.1016/j.colsurfa.2012.10.041,10.1016/j.colsurfa.2012.10.041,,,10.1016/j.colsurfa.2012.10.041,10.1016/j.colsurfa.2012.10.041,10.1016/j.colsurfa.2012.10.041,calculated,calculated