IUPAC_name,SMILES,InChI,InChIKey,Molecular_Weight,CMC,pCMC,AW_ST_CMC,Gamma_max,Area_min,Pi_CMC,PC20,C20,Temp_Celsius,Surfactant_Type,Ref_CMC,Ref_AW_ST_CMC,SubRef_CMC,SubRef_AW_ST_CMC,Ref_Gamma_max,Ref_Pi_CMC,Ref_Area_min,Ref_PC20,Ref_C20
4-diethylaminobenzaldehyde-1-octadecylamine,CCCCCCCCCCCCCCCCCCN=Cc1ccc([N+](C)(CC)CC)cc1.[I-],"InChI=1S/C30H55N2.HI/c1-5-8-9-10-11-12-13-14-15-16-17-18-19-20-21-22-27-31-28-29-23-25-30(26-24-29)32(4,6-2)7-3;/h23-26,28H,5-22,27H2,1-4H3;1H/q+1;/p-1",PBPKTECRQIMFKC-UHFFFAOYSA-M,570.34099776,0.00126,2.89962945488244,36.8,0.00000631,0.26,35,3.11059974316678,0.0445742142417745,25,cationic,10.1007/s11743-009-1156-0,10.1016/j.ces.2022.118208,,10.1201/9780203911518,10.1007/s11743-009-1156-0,10.1007/s11743-009-1156-0,10.1007/s11743-009-1156-0,calculated,calculated
,CCCCCCCCCCCCCCCCCCNC(=O)C(O)C(O)C(OC1OC(CO)C(O)C(O)C1O)C(O)CO,"InChI=1S/C30H59NO11/c1-2-3-4-5-6-7-8-9-10-11-12-13-14-15-16-17-18-31-29(40)26(38)25(37)28(21(34)19-32)42-30-27(39)24(36)23(35)22(20-33)41-30/h21-28,30,32-39H,2-20H2,1H3,(H,31,40)",NLBYYWXPKRQLBK-UHFFFAOYSA-N,609.408811708,0.0000033,5.48148606012211,33.8,0.00000396,0.42,38.2,6.3,0.000000458,20,sugar-based non-ionic,10.1021/acs.iecr.6b02890,,10.1006/jcis.2001.7704,,10.1006/jcis.2001.7704,10.1006/jcis.2001.7704,10.1006/jcis.2001.7704,10.1006/jcis.2001.7704,
"2-[(4-methoxybenzylidene)amino]-3-(2-oxo-2-alkoxyethyl)-1,3-benzothiazol-3-iumBromide",CCCCCCCCCCCCCCCCCCOC(=O)C[n+]1c(N=Cc2ccc(OC)cc2)sc2ccccc21.[Br-],"InChI=1S/C35H51N2O3S.BrH/c1-3-4-5-6-7-8-9-10-11-12-13-14-15-16-17-20-27-40-34(38)29-37-32-21-18-19-22-33(32)41-35(37)36-28-30-23-25-31(39-2)26-24-30;/h18-19,21-26,28H,3-17,20,27,29H2,1-2H3;1H/q+1;/p-1",VUAPXEICHIUIRR-UHFFFAOYSA-M,658.280376592,0.041,1.38721614328026,39.1,,,32.9,,,25,cationic,10.1080/01932691003756902,10.1016/j.ces.2022.118208,,10.1080/01932691003756902,,,,,
"2-(benzylideneamino)-3-(2-oxo-2-octadecyloxyethyl)-1,3-benzothiazol-3-iumbromide",CCCCCCCCCCCCCCCCCCOC(=O)C[n+]1c(N=Cc2ccccc2)sc2ccccc21.[Br-],"InChI=1S/C34H49N2O2S.BrH/c1-2-3-4-5-6-7-8-9-10-11-12-13-14-15-16-22-27-38-33(37)29-36-31-25-20-21-26-32(31)39-34(36)35-28-30-23-18-17-19-24-30;/h17-21,23-26,28H,2-16,22,27,29H2,1H3;1H/q+1;/p-1",KQGGIRBNLMKAKQ-UHFFFAOYSA-M,628.269811908,0.102,0.991399828238083,36.7,,,35.3,,,25,cationic,10.1080/01932691003756902,10.1016/j.ces.2022.118208,,10.1080/01932691003756902,,,,,
7-Pipridinomethyl-8-hydroxy-N-methylcarboxyoctadecyl-quinoliniumbromide,CCCCCCCCCCCCCCCCCCOC(=O)C[n+]1cccc2ccc(CN3CCCCC3)c(O)c21.[Br-],"InChI=1S/C35H56N2O3.BrH/c1-2-3-4-5-6-7-8-9-10-11-12-13-14-15-16-20-28-40-33(38)30-37-27-21-22-31-23-24-32(35(39)34(31)37)29-36-25-18-17-19-26-36;/h21-24,27H,2-20,25-26,28-30H2,1H3;1H",BTNROUZOHNWZMX-UHFFFAOYSA-N,632.355255784,0.00025,3.60205999132796,39,0.00000564,2.94,33,5.94,0.00000115,25,cationic,10.1016/j.bmc.2005.07.031,10.1016/j.ces.2022.118208,,10.1016/j.bmc.2005.07.031,10.1016/j.bmc.2005.07.031,10.1016/j.bmc.2005.07.031,10.1016/j.bmc.2005.07.031,10.1016/j.bmc.2005.07.031,
7-Morphilinomethyl-8-hydroxy-N-methylcarboxyoctadecyl-quinoliniumbromide,CCCCCCCCCCCCCCCCCCOC(=O)C[n+]1cccc2ccc(CN3CCOCC3)c(O)c21.[Br-],"InChI=1S/C34H54N2O4.BrH/c1-2-3-4-5-6-7-8-9-10-11-12-13-14-15-16-17-25-40-32(37)29-36-22-18-19-30-20-21-31(34(38)33(30)36)28-35-23-26-39-27-24-35;/h18-22H,2-17,23-29H2,1H3;1H",FMVQXSWMCPKHEA-UHFFFAOYSA-N,634.33452034,0.00016,3.79588001734408,47.5,0.00000296,5.91,24.5,3.12,0.000759,25,cationic,10.1016/j.bmc.2005.07.031,10.1016/j.ces.2022.118208,,10.1016/j.bmc.2005.07.031,10.1016/j.bmc.2005.07.031,10.1016/j.bmc.2005.07.031,10.1016/j.bmc.2005.07.031,10.1016/j.bmc.2005.07.031,
,CCCCCCCCCCCCCCCCCCOC(=O)C[n+]1oc(C)cc1N=Cc1ccccc1.[Br-],"InChI=1S/C31H49N2O3.BrH/c1-3-4-5-6-7-8-9-10-11-12-13-14-15-16-17-21-24-35-31(34)27-33-30(25-28(2)36-33)32-26-29-22-19-18-20-23-29;/h18-20,22-23,25-26H,3-17,21,24,27H2,1-2H3;1H/q+1;/p-1",LFLSVOZUNXERTR-UHFFFAOYSA-M,576.292655528,,,36.5,,,,,,,cationic,,10.1016/j.ces.2022.118208,,10.1016/j.corsci.2011.06.029,,,,,
"2-(hexadecyloxy)-2-oxoethyl-N,N,N-triethylammoniumiodide",CCCCCCCCCCCCCCCCCCOC(=O)[N+](CC)(CC)CC.[I-],"InChI=1S/C25H52NO2.HI/c1-5-9-10-11-12-13-14-15-16-17-18-19-20-21-22-23-24-28-25(27)26(6-2,7-3)8-4;/h5-24H2,1-4H3;1H/q+1;/p-1",ZTGBCBCFOSPGJU-UHFFFAOYSA-M,525.304277904,0.00515,2.28819277095881,35,0.00000151,1.1,36.78,2.39,0.0044,25,cationic,10.3139/113.110437,10.1016/j.ces.2022.118208,,10.3139/113.110437,10.3139/113.110437,10.3139/113.110437,10.3139/113.110437,10.3139/113.110437,10.3139/113.110437
2-(2-dodecoxyethoxy)ethanol,CCCCCCCCCCCCCCCCCCOCCOCCOCCCCCOCCOCCOCCOCCOCCOCCOCCOCCO,"InChI=1S/C43H88O12/c1-2-3-4-5-6-7-8-9-10-11-12-13-14-15-16-18-22-45-26-30-49-31-27-46-23-19-17-20-24-47-28-32-50-34-36-52-38-40-54-42-43-55-41-39-53-37-35-51-33-29-48-25-21-44/h44H,2-43H2,1H3",PWXNDMGHSNOXDT-UHFFFAOYSA-N,796.627578256,0.000033,4.48148606012211,26.27,0.00000473,0.25,45.7,5.43431668813421,0.00436421612318714,25,non-ionic,10.1021/acs.jpcb.1c05264,calculated,10.1002/9781118228920,,10.1021/j100393a025,10.1021/j100393a025,10.1021/j100393a025,calculated,calculated
POE(10) stearyl ether,CCCCCCCCCCCCCCCCCCOCCOCCOCCOCCOCCOCCOCCOCCOCCOCCO,"InChI=1S/C38H78O11/c1-2-3-4-5-6-7-8-9-10-11-12-13-14-15-16-17-19-40-21-23-42-25-27-44-29-31-46-33-35-48-37-38-49-36-34-47-32-30-45-28-26-43-24-22-41-20-18-39/h39H,2-38H2,1H3",HNUQMTZUNUBOLQ-UHFFFAOYSA-N,710.554413316,0.000003,5.52287874528034,,,,,,,24.85,non-ionic,10.1007/s11743-001-0184-2,,,,,,,,
2-[2-[2-[2-[2-[2-[2-[2-[2-[2-[2-[2-[2-(2-octadecoxyethoxy)ethoxy]ethoxy]ethoxy]ethoxy]ethoxy]ethoxy]ethoxy]ethoxy]ethoxy]ethoxy]ethoxy]ethoxy]ethanol,CCCCCCCCCCCCCCCCCCOCCOCCOCCOCCOCCOCCOCCOCCOCCOCCOCCOCCOCCOCCO,"InChI=1S/C46H94O15/c1-2-3-4-5-6-7-8-9-10-11-12-13-14-15-16-17-19-48-21-23-50-25-27-52-29-31-54-33-35-56-37-39-58-41-43-60-45-46-61-44-42-59-40-38-57-36-34-55-32-30-53-28-26-51-24-22-49-20-18-47/h47H,2-46H2,1H3",FUSDNKWYJSDDRU-UHFFFAOYSA-N,886.659272308,0.0000031,5.50863830616573,,,,,,,25,non-ionic,10.1002/9781118228920.ch3,,,,,,,,
POE(20) oleyl ether,CCCCCCCCCCCCCCCCCCOCCOCCOCCOCCOCCOCCOCCOCCOCCOCCOCCOCCOCCOCCOCCOCCOCCOCCOCCOCCO,"InChI=1S/C58H118O21/c1-2-3-4-5-6-7-8-9-10-11-12-13-14-15-16-17-19-60-21-23-62-25-27-64-29-31-66-33-35-68-37-39-70-41-43-72-45-47-74-49-51-76-53-55-78-57-58-79-56-54-77-52-50-75-48-46-73-44-42-71-40-38-69-36-34-67-32-30-65-28-26-63-24-22-61-20-18-59/h59H,2-58H2,1H3",JKXYOQDLERSFPT-UHFFFAOYSA-N,1150.816560796,0.000097,4.01322826573376,,,,,,,24.85,non-ionic,"['10.1007/s11743-001-0184-2', '10.1002/9781118228920.ch3']",,,,,,,,
POE(21) stearyl ether,CCCCCCCCCCCCCCCCCCOCCOCCOCCOCCOCCOCCOCCOCCOCCOCCOCCOCCOCCOCCOCCOCCOCCOCCOCCOCCOCCO,"InChI=1S/C60H122O22/c1-2-3-4-5-6-7-8-9-10-11-12-13-14-15-16-17-19-62-21-23-64-25-27-66-29-31-68-33-35-70-37-39-72-41-43-74-45-47-76-49-51-78-53-55-80-57-59-82-60-58-81-56-54-79-52-50-77-48-46-75-44-42-73-40-38-71-36-34-69-32-30-67-28-26-65-24-22-63-20-18-61/h61H,2-60H2,1H3",HMOOLBSXAVBFQK-UHFFFAOYSA-N,1194.842775544,0.0000039,5.4089353929735,,,,,,,24.85,non-ionic,10.1007/s11743-001-0184-2,,,,,,,,
POE(100) stearyl ether,CCCCCCCCCCCCCCCCCCOCCOCCOCCOCCOCCOCCOCCOCCOCCOCCOCCOCCOCCOCCOCCOCCOCCOCCOCCOCCOCCOCCOCCOCCOCCOCCOCCOCCOCCOCCOCCOCCOCCOCCOCCOCCOCCOCCOCCOCCOCCOCCOCCOCCOCCOCCOCCOCCOCCOCCOCCOCCOCCOCCOCCOCCOCCOCCOCCOCCOCCOCCOCCOCCOCCOCCOCCOCCOCCOCCOCCOCCOCCOCCOCCOCCOCCOCCOCCOCCOCCOCCOCCOCCOCCOCCOCCOCCOCCOCCOCCOCCOCCOCCOCCOCCOCCOCCOCCOCCO,"InChI=1S/C218H438O101/c1-2-3-4-5-6-7-8-9-10-11-12-13-14-15-16-17-19-220-21-23-222-25-27-224-29-31-226-33-35-228-37-39-230-41-43-232-45-47-234-49-51-236-53-55-238-57-59-240-61-63-242-65-67-244-69-71-246-73-75-248-77-79-250-81-83-252-85-87-254-89-91-256-93-95-258-97-99-260-101-103-262-105-107-264-109-111-266-113-115-268-117-119-270-121-123-272-125-127-274-129-131-276-133-135-278-137-139-280-141-143-282-145-147-284-149-151-286-153-155-288-157-159-290-161-163-292-165-167-294-169-171-296-173-175-298-177-179-300-181-183-302-185-187-304-189-191-306-193-195-308-197-199-310-201-203-312-205-207-314-209-211-316-213-215-318-217-218-319-216-214-317-212-210-315-208-206-313-204-202-311-200-198-309-196-194-307-192-190-305-188-186-303-184-182-301-180-178-299-176-174-297-172-170-295-168-166-293-164-162-291-160-158-289-156-154-287-152-150-285-148-146-283-144-142-281-140-138-279-136-134-277-132-130-275-128-126-273-124-122-271-120-118-269-116-114-267-112-110-265-108-106-263-104-102-261-100-98-259-96-94-257-92-90-255-88-86-253-84-82-251-80-78-249-76-74-247-72-70-245-68-66-243-64-62-241-60-58-239-56-54-237-52-50-235-48-46-233-44-42-231-40-38-229-36-34-227-32-30-225-28-26-223-24-22-221-20-18-219/h219H,2-218H2,1H3",BIOIBMWTRFJSHC-UHFFFAOYSA-N,4672.913740636,0.00002,4.69897000433602,,,,,,,24.85,non-ionic,10.1007/s11743-001-0184-2,,,,,,,,
,CCCCCCCCCCCCCCCCCCOCCOCCOCCOCCOCCOS(=O)(=O)[O-].[Na+],"InChI=1S/C28H58O9S.Na/c1-2-3-4-5-6-7-8-9-10-11-12-13-14-15-16-17-18-32-19-20-33-21-22-34-23-24-35-25-26-36-27-28-37-38(29,30)31;/h2-28H2,1H3,(H,29,30,31);/q;+1/p-1",VDDOZABAPPROJZ-UHFFFAOYSA-M,592.362098684,0.00025,3.60205999132796,,,,,,,25,anionic,10.1002/9781118228920.ch3,,,,,,,,
,CCCCCCCCCCCCCCCCCCOCCOCCOCCOCCOS(=O)(=O)[O-].[Na+],"InChI=1S/C26H54O8S.Na/c1-2-3-4-5-6-7-8-9-10-11-12-13-14-15-16-17-18-30-19-20-31-21-22-32-23-24-33-25-26-34-35(27,28)29;/h2-26H2,1H3,(H,27,28,29);/q;+1/p-1",UBQDKLOAFPKOHZ-UHFFFAOYSA-M,548.335883936,0.00004,4.39794000867204,,,,,,,25,anionic,10.1016/0021-9797(76)90178-8,,,,,,,,
,CCCCCCCCCCCCCCCCCCOCCOCCOCCOS(=O)(=O)[O-].[Na+],"InChI=1S/C24H50O7S.Na/c1-2-3-4-5-6-7-8-9-10-11-12-13-14-15-16-17-18-28-19-20-29-21-22-30-23-24-31-32(25,26)27;/h2-24H2,1H3,(H,25,26,27);/q;+1/p-1",PMGZXHGAXBWPPN-UHFFFAOYSA-M,504.309669188,0.00005,4.30102999566398,,,,,,,25,anionic,10.1016/0021-9797(76)90178-8,,,,,,,,
,CCCCCCCCCCCCCCCCCCOCCOCCOS(=O)(=O)[O-].[Na+],"InChI=1S/C22H46O6S.Na/c1-2-3-4-5-6-7-8-9-10-11-12-13-14-15-16-17-18-26-19-20-27-21-22-28-29(23,24)25;/h2-22H2,1H3,(H,23,24,25);/q;+1/p-1",XEVGTBOXCMGKQO-UHFFFAOYSA-M,460.28345444,0.00007,4.15490195998574,,,,,,,25,anionic,10.1016/0021-9797(76)90178-8,,,,,,,,
,CCCCCCCCCCCCCCCCCCOCCOS(=O)(=O)[O-].[Na+],"InChI=1S/C20H42O5S.Na/c1-2-3-4-5-6-7-8-9-10-11-12-13-14-15-16-17-18-24-19-20-25-26(21,22)23;/h2-20H2,1H3,(H,21,22,23);/q;+1/p-1",CCXOGWKVFCZBTN-UHFFFAOYSA-M,416.257239692,0.00011,3.95860731484178,,,,,,,25,anionic,10.1016/0021-9797(76)90178-8,,,,,,,,
,CCCCCCCCCCCCCCCCCCOCOC[C@H]1OC(O)[C@H](O)[C@@H](O)[C@@H]1O,"InChI=1S/C25H50O7/c1-2-3-4-5-6-7-8-9-10-11-12-13-14-15-16-17-18-30-20-31-19-21-22(26)23(27)24(28)25(29)32-21/h21-29H,2-20H2,1H3/t21-,22-,23+,24-,25?/m1/s1",RXGYYLSTMFDKPY-BIFUOPDKSA-N,462.35565394,0.0002,3.69897000433602,,,,,,,25,non-ionic,10.1021/ie4016232,,,,,,,,
,CCCCCCCCCCCCCCCCCCOP(=O)([O-])OCC[N+](C)(C)CCCCCCCC,"InChI=1S/C30H64NO4P/c1-5-7-9-11-13-14-15-16-17-18-19-20-21-22-24-26-29-34-36(32,33)35-30-28-31(3,4)27-25-23-12-10-8-6-2/h5-30H2,1-4H3",PKFQMEKTCDOXTH-UHFFFAOYSA-N,533.457296158,5.90065196995666E-06,5.2291,,,,,,,25,gemini zwitterionic,10.1016/j.chemosphere.2011.05.031,,,,,,,,
sodium-octadecyl-sulfate,CCCCCCCCCCCCCCCCCCOS(=O)(=O)[O-].[Na+],"InChI=1S/C18H38O4S.Na/c1-2-3-4-5-6-7-8-9-10-11-12-13-14-15-16-17-18-22-23(19,20)21;/h2-18H2,1H3,(H,19,20,21);/q;+1/p-1",NWZBFJYXRGSRGD-UHFFFAOYSA-M,372.231024944,0.00011,3.95860731484178,,,,,,,25,anionic,"['10.1016/0021-9797(76)90178-8', '10.1021/ci600462d']",,10.1006/jcis.1996.4680,,,,,,
trimethyl(octadecyl)azanium-bromide,CCCCCCCCCCCCCCCCCC[N+](C)(C)C.[Br-],"InChI=1S/C21H46N.BrH/c1-5-6-7-8-9-10-11-12-13-14-15-16-17-18-19-20-21-22(2,3)4;/h5-21H2,1-4H3;1H/q+1;/p-1",SZEMGTQCPRNXEG-UHFFFAOYSA-M,391.281362572,0.00035,3.45593195564972,35,0.00000319,0.52,37,3.82,0.00015,25,cationic,10.1016/j.tca.2004.11.009,,,,,,10.1016/j.tca.2004.11.009,,10.1016/j.tca.2004.11.009
,CCCCCCCCCCCCCCCCCC[N+](C)(C)C.[Cl-],"InChI=1S/C21H46N.ClH/c1-5-6-7-8-9-10-11-12-13-14-15-16-17-18-19-20-21-22(2,3)4;/h5-21H2,1-4H3;1H/q+1;/p-1",VBIIFPGSPJYLRR-UHFFFAOYSA-M,347.331878152,0.00034,3.46852108295774,37.2,,,34.77,,,25,cationic,10.1016/0021-9797(76)90178-8,10.1016/j.ces.2022.118208,,10.1016/j.crci.2018.11.009,,calculated,,,
N-bis(octadecyltrimethylammonium)piperazine,CCCCCCCCCCCCCCCCCC[N+](C)(C)CC(O)CN1CCN(CC(O)C[N+](C)(C)CCCCCCCCCCCCCCCCCC)CC1.[Cl-].[Cl-],"InChI=1S/C50H106N4O2.2ClH/c1-7-9-11-13-15-17-19-21-23-25-27-29-31-33-35-37-43-53(3,4)47-49(55)45-51-39-41-52(42-40-51)46-50(56)48-54(5,6)44-38-36-34-32-30-28-26-24-22-20-18-16-14-12-10-8-2;;/h49-50,55-56H,7-48H2,1-6H3;2*1H/q+2;;/p-2",RKEGABGSPPBWSY-UHFFFAOYSA-L,864.769283992,0.000397,3.40120949323689,40.9,0.000001207,1.38,31.1,4.994,0.0000101,25,gemini cationic,10.1080/01932691.2014.986737,10.1016/j.ces.2022.118208,,10.1080/01932691.2014.986737,10.1080/01932691.2014.986737,10.1080/01932691.2014.986737,10.1080/01932691.2014.986737,10.1080/01932691.2014.986737,10.1080/01932691.2014.986737
"1,1,1-Tris[2-hydroxy-3-(octadecyldimethylammonio)-propoxymethyl]ethanetrichloride",CCCCCCCCCCCCCCCCCC[N+](C)(C)CC(O)COCC(C)(COCC(O)C[N+](C)(C)CCCCCCCCCCCCCCCCCC)COCC(O)C[N+](C)(C)CCCCCCCCCCCCCCCCCC.[Cl-].[Cl-].[Cl-],"InChI=1S/C74H156N3O6.3ClH/c1-11-14-17-20-23-26-29-32-35-38-41-44-47-50-53-56-59-75(5,6)62-71(78)65-81-68-74(4,69-82-66-72(79)63-76(7,8)60-57-54-51-48-45-42-39-36-33-30-27-24-21-18-15-12-2)70-83-67-73(80)64-77(9,10)61-58-55-52-49-46-43-40-37-34-31-28-25-22-19-16-13-3;;;/h71-73,78-80H,11-70H2,1-10H3;3*1H/q+3;;;/p-3",FQEPXOPMNSSUOV-UHFFFAOYSA-K,1288.105972752,0.000049,4.30980391997149,33,0.00000294,0.57,39,5.39,0.000005,25,gemini cationic,10.1007/s11743-007-1052-4,10.1007/s11743-007-1052-4,,10.1007/s11743-007-1052-4,10.1007/s11743-007-1052-4,10.1007/s11743-007-1052-4,,10.1007/s11743-007-1052-4,
,CCCCCCCCCCCCCCCCCC[N+](C)(C)CC(O)COCCOCCOCCOCCOCCOCCOCCOCCOCCOCCCCCCCCCCCC.[Cl-],"InChI=1S/C53H110NO11.ClH/c1-5-7-9-11-13-15-17-18-19-20-21-22-23-25-27-29-31-54(3,4)51-53(55)52-65-50-49-64-48-47-63-46-45-62-44-43-61-42-41-60-40-39-59-38-37-58-36-35-57-34-33-56-32-30-28-26-24-16-14-12-10-8-6-2;/h53,55H,5-52H2,1-4H3;1H/q+1;/p-1",QOMBHSQFKBTSTK-UHFFFAOYSA-M,971.77674102,,,42.1,,,,,,,cationic,,10.1016/j.ces.2022.118208,,10.1080/01932691.2015.1120676,,,,,
,CCCCCCCCCCCCCCCCCC[N+](C)(C)CC(O)C[N+](C)(C)CCCCCCCCCCCCCCCCCC.[Cl-].[Cl-],"InChI=1S/C43H92N2O.2ClH/c1-7-9-11-13-15-17-19-21-23-25-27-29-31-33-35-37-39-44(3,4)41-43(46)42-45(5,6)40-38-36-34-32-30-28-26-24-22-20-18-16-14-12-10-8-2;;/h43,46H,7-42H2,1-6H3;2*1H/q+2;;/p-2",GVPKBFHHCHVJOJ-UHFFFAOYSA-L,722.658670924,,,36.4,,,,,,,gemini cationic,,10.1016/j.ces.2022.118208,,10.4028/www.scientific.net/AMM.174-177.1433,,,,,
,CCCCCCCCCCCCCCCCCC[N+](C)(C)CCCCCC[N+](C)(C)CCCCCC.[Br-].[Br-],"InChI=1S/C34H74N2.2BrH/c1-7-9-11-13-14-15-16-17-18-19-20-21-22-23-24-28-32-36(5,6)34-30-26-25-29-33-35(3,4)31-27-12-10-8-2;;/h7-34H2,1-6H3;2*1H/q+2;;/p-2",SXBYKQFFNCFKIY-UHFFFAOYSA-L,668.421874568,0.0005900651969956,3.22910000000005,,,,,,,25,gemini cationic,10.1016/j.chemosphere.2011.05.031,,,,,,,,
,CCCCCCCCCCCCCCCCCC[N+](C)(C)CCN(CCC(=O)NCCN(CCC(=O)OC)CCC(=O)OC)CCC(=O)NCCN(CCC(=O)OC)CCC(=O)OC.[Br-],"InChI=1S/C48H92N6O10.BrH/c1-8-9-10-11-12-13-14-15-16-17-18-19-20-21-22-23-41-54(2,3)42-40-53(32-24-43(55)49-30-38-51(34-26-45(57)61-4)35-27-46(58)62-5)33-25-44(56)50-31-39-52(36-28-47(59)63-6)37-29-48(60)64-7;/h8-42H2,1-7H3,(H-,49,50,55,56);1H",JSGBYUGZUSPJGE-UHFFFAOYSA-N,992.613655276,,,41.2,,,,,,,cationic,,10.1016/j.ces.2022.118208,,10.5650/jos.62.213,,,,,
,CCCCCCCCCCCCCCCCCC[N+](C)(C)CCN(CCC(=O)OC)CCC(=O)OC.[Br-],"InChI=1S/C30H61N2O4.BrH/c1-6-7-8-9-10-11-12-13-14-15-16-17-18-19-20-21-27-32(2,3)28-26-31(24-22-29(33)35-4)25-23-30(34)36-5;/h6-28H2,1-5H3;1H/q+1;/p-1",VVYCZUBGSGPZCG-UHFFFAOYSA-M,592.381470532,,,38.2,,,,,,,cationic,,10.1016/j.ces.2022.118208,,10.5650/jos.62.213,,,,,
,CCCCCCCCCCCCCCCCCC[N+](C)(C)CCOC(=O)CCC(=O)OCC[N+](C)(C)CCCCCCCCCCCCCCCCCC.[Cl-].[Cl-],"InChI=1S/C48H98N2O4.2ClH/c1-7-9-11-13-15-17-19-21-23-25-27-29-31-33-35-37-41-49(3,4)43-45-53-47(51)39-40-48(52)54-46-44-50(5,6)42-38-36-34-32-30-28-26-24-22-20-18-16-14-12-10-8-2;;/h7-46H2,1-6H3;2*1H/q+2;;/p-2",UFMMQVAMTKCFOC-UHFFFAOYSA-L,836.690364976,,,32.7,,,,,,,gemini cationic,,10.1016/j.ces.2022.118208,,10.1016/j.molliq.2017.01.056,,,,,
,CCCCCCCCCCCCCCCCCC[N+](C)(C)CCOC(=O)CCCCCCC(=O)OCC[N+](C)(C)CCCCCCCCCCCCCCCCCC.[Cl-].[Cl-],"InChI=1S/C52H106N2O4.2ClH/c1-7-9-11-13-15-17-19-21-23-25-27-29-31-33-37-41-45-53(3,4)47-49-57-51(55)43-39-35-36-40-44-52(56)58-50-48-54(5,6)46-42-38-34-32-30-28-26-24-22-20-18-16-14-12-10-8-2;;/h7-50H2,1-6H3;2*1H/q+2;;/p-2",CQZLZLQCFYMJJB-UHFFFAOYSA-L,892.752965232,,,33.2,,,,,,,gemini cationic,,10.1016/j.ces.2022.118208,,10.1016/j.molliq.2017.01.056,,,,,
"ether-α,ω-bis-(dimethyloctadecylammoniumbromide)",CCCCCCCCCCCCCCCCCC[N+](C)(C)CCOCC[N+](C)(C)CCCCCCCCCCCCCCCCCC.[Br-].[Br-],"InChI=1S/C44H94N2O.2BrH/c1-7-9-11-13-15-17-19-21-23-25-27-29-31-33-35-37-39-45(3,4)41-43-47-44-42-46(5,6)40-38-36-34-32-30-28-26-24-22-20-18-16-14-12-10-8-2;;/h7-44H2,1-6H3;2*1H/q+2;;/p-2",XDAZVAVYNVMZIM-UHFFFAOYSA-L,824.573289828,0.0000014,5.85387196432176,40,0.000002,2.5,32,6.26,0.00000055,25,gemini cationic,"['10.1016/j.crci.2019.04.002', '10.1021/la9904096', '10.1021/la9904096']",10.1016/j.ces.2022.118208,,10.1021/la9904096,10.1021/la9904096,,10.1021/la9904096,10.1021/la9904096,
,CCCCCCCCCCCCCCCCCC[N+](C)(C)CCOP(=O)([O-])OCCCCCCCC,"InChI=1S/C30H64NO4P/c1-5-7-9-11-13-14-15-16-17-18-19-20-21-22-23-25-27-31(3,4)28-30-35-36(32,33)34-29-26-24-12-10-8-6-2/h5-30H2,1-4H3",GICYBURPCPGCTI-UHFFFAOYSA-N,533.457296158,4.79954424931944E-06,5.3188,,,,,,,25,gemini zwitterionic,10.1016/j.chemosphere.2011.05.031,,,,,,,,
"N,N'-bis(octadecyldimethyl)-3-S-1,5-pentanediammoniumdibromide",CCCCCCCCCCCCCCCCCC[N+](C)(C)CCSCC[N+](C)(C)CCCCCCCCCCCCCCCCCC.[Br-].[Br-],"InChI=1S/C44H94N2S.2BrH/c1-7-9-11-13-15-17-19-21-23-25-27-29-31-33-35-37-39-45(3,4)41-43-47-44-42-46(5,6)40-38-36-34-32-30-28-26-24-22-20-18-16-14-12-10-8-2;;/h7-44H2,1-6H3;2*1H/q+2;;/p-2",WQRVGACCEWCSSZ-UHFFFAOYSA-L,840.550446208,0.000001,6,40.9,0.00000139,1.19,31.1,6.46625552069051,0.00155503765114279,25,gemini cationic,"['10.1016/j.chemosphere.2011.05.031', '10.1016/0021-9797(86)90417-0', '10.1016/0021-9797(86)90417-0']",10.1016/j.ces.2022.118208,,10.1016/0021-9797(86)90417-0,10.1016/0021-9797(86)90417-0,,,calculated,calculated
"N,N-dimethyl-N-octadecyl-N-(m-methoxybenzyl)ammoniumchloride",CCCCCCCCCCCCCCCCCC[N+](C)(C)Cc1cccc(OC)c1.[Cl-],"InChI=1S/C28H52NO.ClH/c1-5-6-7-8-9-10-11-12-13-14-15-16-17-18-19-20-24-29(2,3)26-27-22-21-23-28(25-27)30-4;/h21-23,25H,5-20,24,26H2,1-4H3;1H/q+1;/p-1",SUJJOTZQZOLUCL-UHFFFAOYSA-M,453.373742964,0.0000361,4.44249279809434,42.5,0.00000125,1.33,29.5,5.34,0.00000457,25,cationic,10.1039/C4RA07363K,10.1016/j.ces.2022.118208,,10.1039/C4RA07363K,10.1039/C4RA07363K,,10.1039/C4RA07363K,10.1039/C4RA07363K,
"N,N-dimethyl-N-octadecyl-Nbenzylammoniumchloride",CCCCCCCCCCCCCCCCCC[N+](C)(C)Cc1ccccc1.[Cl-],"InChI=1S/C27H50N.ClH/c1-4-5-6-7-8-9-10-11-12-13-14-15-16-17-18-22-25-28(2,3)26-27-23-20-19-21-24-27;/h19-21,23-24H,4-18,22,25-26H2,1-3H3;1H/q+1;/p-1",SFVFIFLLYFPGHH-UHFFFAOYSA-M,423.36317828,0.000053,4.27572413039921,40.3,0.00000123,1.35,31.7,5.14,0.00000724,25,cationic,10.1039/C4RA07363K,10.1016/j.ces.2022.118208,,10.1039/C4RA07363K,10.1039/C4RA07363K,,10.1039/C4RA07363K,10.1039/C4RA07363K,
"N-octadecyl–N,N-dimethyl-N-(o-hydroxymethyl)benzylammoniumchloride",CCCCCCCCCCCCCCCCCC[N+](C)(C)Cc1ccccc1CO.[Cl-],"InChI=1S/C28H52NO.ClH/c1-4-5-6-7-8-9-10-11-12-13-14-15-16-17-18-21-24-29(2,3)25-27-22-19-20-23-28(27)26-30;/h19-20,22-23,30H,4-18,21,24-26H2,1-3H3;1H/q+1;/p-1",OFXWYWKVCHMBKF-UHFFFAOYSA-M,453.373742964,0.0091,2.04095860767891,43.2,0.00000133,1.25,28.8,5.04,0.00000914,25,cationic,10.1007/s11743-015-1706-6,10.1016/j.ces.2022.118208,,10.1007/s11743-015-1706-6,10.1007/s11743-015-1706-6,,10.1007/s11743-015-1706-6,10.1007/s11743-015-1706-6,