IUPAC_name,SMILES,InChI,InChIKey,Molecular_Weight,CMC,pCMC,AW_ST_CMC,Gamma_max,Area_min,Pi_CMC,PC20,C20,Temp_Celsius,Surfactant_Type,Ref_CMC,Ref_AW_ST_CMC,SubRef_CMC,SubRef_AW_ST_CMC,Ref_Gamma_max,Ref_Pi_CMC,Ref_Area_min,Ref_PC20,Ref_C20
,CCCCCCCCOC(=O)CC([N+])C(=O)OCCCCCC.[Cl-],"InChI=1S/C18H33NO4.ClH/c1-3-5-7-9-10-12-13-22-17(20)15-16(19)18(21)23-14-11-8-6-4-2;/h16H,3-15H2,1-2H3;1H/q+1;/p-1",BELZWBWEBHYTHR-UHFFFAOYSA-M,362.209811216,,,23.4,,,,,,,cationic,,10.1016/j.ces.2022.118208,,10.1002/jsde.12437,,,,,
sodium-2-octoxy-2-oxoethanesulfonate,CCCCCCCCOC(=O)CS(=O)(=O)[O-].[Na+],"InChI=1S/C10H20O5S.Na/c1-2-3-4-5-6-7-8-15-10(11)9-16(12,13)14;/h2-9H2,1H3,(H,12,13,14);/q;+1/p-1",PFDIDGFAIAAGSH-UHFFFAOYSA-M,274.085088988,0.066,1.18045606445813,,,,,,,25,anionic,10.1021/acs.jpcb.1c05264,,10.1002/9781118228920,,,,,,
,CCCCCCCCOC(=O)C[N+](C)(C)CC[N+](C)(C)CC(=O)OCCCCCCCC.[Cl-].[Cl-],"InChI=1S/C26H54N2O4.2ClH/c1-7-9-11-13-15-17-21-31-25(29)23-27(3,4)19-20-28(5,6)24-26(30)32-22-18-16-14-12-10-8-2;;/h7-24H2,1-6H3;2*1H/q+2;;/p-2",ZNPDONAKDSEEMC-UHFFFAOYSA-L,528.346063568,,,43,,,,,,,gemini cationic,,10.1016/j.ces.2022.118208,,10.1016/j.molliq.2016.05.083,,,,,
,CCCCCCCCOC(=O)C[N+](CC)(CC)c1ccc(C=NCCN=Cc2ccc([N+](CC)(CC)CC(=O)OCCCCCCCC)cc2)cc1.[Cl-].[Cl-],"InChI=1S/C44H72N4O4.2ClH/c1-7-13-15-17-19-21-33-51-43(49)37-47(9-3,10-4)41-27-23-39(24-28-41)35-45-31-32-46-36-40-25-29-42(30-26-40)48(11-5,12-6)38-44(50)52-34-22-20-18-16-14-8-2;;/h23-30,35-36H,7-22,31-34,37-38H2,1-6H3;2*1H/q+2;;/p-2",OQJITBPWQJVQJP-UHFFFAOYSA-L,790.493062144,,,39.7,,,,,,,gemini cationic,,10.1016/j.ces.2022.118208,,10.1080/01932690903269784,,,,,
,CCCCCCCCOC(=O)C[n+]1cccc(N=Cc2ccc(O)c(OC)c2)c1.[Br-],"InChI=1S/C23H30N2O4.BrH/c1-3-4-5-6-7-8-14-29-23(27)18-25-13-9-10-20(17-25)24-16-19-11-12-21(26)22(15-19)28-2;/h9-13,15-17H,3-8,14,18H2,1-2H3;1H",ZPYGXQCFUKRSEY-UHFFFAOYSA-N,478.146719572,0.0025,2.60205999132796,41.3,0.00000096,1.739,30.5,4.17392519729917,0.000067,25,cationic,10.1016/j.colsurfa.2011.09.032,10.1016/j.ces.2022.118208,,10.1016/j.colsurfa.2011.09.032,10.1016/j.colsurfa.2011.09.032,10.1016/j.colsurfa.2011.09.032,10.1016/j.colsurfa.2011.09.032,,10.1016/j.colsurfa.2011.09.032
,CCCCCCCCOC(CO)CO,"InChI=1S/C11H24O3/c1-2-3-4-5-6-7-8-14-11(9-12)10-13/h11-13H,2-10H2,1H3",CNCADJQPAKJTNP-UHFFFAOYSA-N,204.172544628,,,24.7,,,,,,,non-ionic,,10.1016/j.ces.2022.118208,,10.1021/j150575a003,,,,,
"1-O-octyl-D,L-xylitol",CCCCCCCCOC([C@@H](O)C(O)[C@@H](O)CO)[C@@H](O)CO,"InChI=1S/C15H32O7/c1-2-3-4-5-6-7-8-22-15(12(19)10-17)14(21)13(20)11(18)9-16/h11-21H,2-10H2,1H3/t11-,12-,13?,14-,15?/m0/s1",BAMZCHPZQASKOM-ZHLCCONPSA-N,324.214803364,0.0067,2.17392519729917,,0.0000034,0.49,,3.4,0.0003981071705534,25,sugar-based non-ionic,10.1021/acs.iecr.6b02890,,10.1016/j.molliq.2018.01.037,,10.1016/S0378-5173(99)00078-2,,10.1016/S0378-5173(99)00078-2,10.1016/S0378-5173(99)00078-2,
"2-(hydroxymethyl)-6-octoxyoxane-3,4,5-triol",CCCCCCCCOC1OC(CO)C(O)C(O)C1O,"InChI=1S/C14H28O6/c1-2-3-4-5-6-7-8-19-14-13(18)12(17)11(16)10(9-15)20-14/h10-18H,2-9H2,1H3",HEGSGKPQLMEBJL-UHFFFAOYSA-N,292.188588616,0.0058,2.23657200643706,,,,,,,25,sugar-based non-ionic,10.1021/acs.jpcb.1c05264,,10.1002/9781118228920,,,,,,
,CCCCCCCCOC1[CH][C@H](O)[C@@H](O)C(O)O1,"InChI=1S/C13H25O5/c1-2-3-4-5-6-7-8-17-11-9-10(14)12(15)13(16)18-11/h9-16H,2-8H2,1H3/t10-,11?,12+,13?/m0/s1",KSAGFKMWQPQNGD-GMKTYKIGSA-N,261.1701989,0.006699,2.1739900222089,,,,,,,25,non-ionic,10.1021/ie4016232,,,,,,,,
"4,4-bis(octyloxymethyl)-N,N,N,N',N',N'-hexamethyl-1,7-heptanediammoniumdiiodide",CCCCCCCCOCC(CCC[N+](C)(C)C)(CCC[N+](C)(C)C)COCCCCCCCC.[I-].[I-],"InChI=1S/C31H68N2O2.2HI/c1-9-11-13-15-17-19-27-34-29-31(23-21-25-32(3,4)5,24-22-26-33(6,7)8)30-35-28-20-18-16-14-12-10-2;;/h9-30H2,1-8H3;2*1H/q+2;;/p-2",JXIHMNQRYIBZFE-UHFFFAOYSA-L,754.337025416,0.00191,2.71896663275227,31.4,0.00000166,1,40.6,3.72,0.000191,25,gemini cationic,10.1016/j.jcis.2014.02.017,10.1016/j.ces.2022.118208,,10.1016/j.jcis.2014.02.017,10.1016/j.jcis.2014.02.017,10.1016/j.jcis.2014.02.017,10.1016/j.jcis.2014.02.017,10.1016/j.jcis.2014.02.017,10.1016/j.jcis.2014.02.017
"3,3-bis(octyloxymethyl)-N,N,N,N',N',N'-hexamethyl-1,5-pentanediammoniumdiiodide",CCCCCCCCOCC(CC[N+](C)(C)C)(CC[N+](C)(C)C)COCCCCCCCC.[I-].[I-],"InChI=1S/C29H64N2O2.2HI/c1-9-11-13-15-17-19-25-32-27-29(21-23-30(3,4)5,22-24-31(6,7)8)28-33-26-20-18-16-14-12-10-2;;/h9-28H2,1-8H3;2*1H/q+2;;/p-2",GOABUNFXHDHHDU-UHFFFAOYSA-L,726.305725288,0.00119,2.92445303860747,32.2,0.00000119,1.4,39.8,3.64,0.000229,25,gemini cationic,10.1016/j.jcis.2014.02.017,10.1016/j.ces.2022.118208,,10.1016/j.jcis.2014.02.017,10.1016/j.jcis.2014.02.017,10.1016/j.jcis.2014.02.017,10.1016/j.jcis.2014.02.017,10.1016/j.jcis.2014.02.017,10.1016/j.jcis.2014.02.017
"6,6-bis(octyloxymethyl)-N,N,N,N',N',N'-hexamethyl-4,8-dioxa-1,11-undecanediammoniumdiiodide",CCCCCCCCOCC(COCCCCCCCC)(COCCC[N+](C)(C)C)COCCC[N+](C)(C)C.[I-].[I-],"InChI=1S/C33H72N2O4.2HI/c1-9-11-13-15-17-19-25-36-29-33(31-38-27-21-23-34(3,4)5,32-39-28-22-24-35(6,7)8)30-37-26-20-18-16-14-12-10-2;;/h9-32H2,1-8H3;2*1H/q+2;;/p-2",GWRMOMRZXFQLPB-UHFFFAOYSA-L,814.358154784,0.00119,2.92445303860747,36.7,0.00000104,1.6,35.3,3.71,0.000195,25,gemini cationic,10.1016/j.jcis.2014.02.017,10.1016/j.ces.2022.118208,,10.1016/j.jcis.2014.02.017,10.1016/j.jcis.2014.02.017,10.1016/j.jcis.2014.02.017,10.1016/j.jcis.2014.02.017,10.1016/j.jcis.2014.02.017,10.1016/j.jcis.2014.02.017
"5,5-bis(octyloxymethyl)-N,N,N,N',N',N'-hexamethyl-3,7-dioxa-1,9-nonanediammoniumdiiodide",CCCCCCCCOCC(COCCCCCCCC)(COCC[N+](C)(C)C)COCC[N+](C)(C)C.[I-].[I-],"InChI=1S/C31H68N2O4.2HI/c1-9-11-13-15-17-19-23-34-27-31(29-36-25-21-32(3,4)5,30-37-26-22-33(6,7)8)28-35-24-20-18-16-14-12-10-2;;/h9-30H2,1-8H3;2*1H/q+2;;/p-2",MAHFJSFFBHMKNB-UHFFFAOYSA-L,786.326854656,0.00199,2.70114692359029,31.4,0.00000166,1,40.6,3.63,0.000234,25,gemini cationic,10.1016/j.jcis.2014.02.017,10.1016/j.ces.2022.118208,,10.1016/j.jcis.2014.02.017,10.1016/j.jcis.2014.02.017,10.1016/j.jcis.2014.02.017,10.1016/j.jcis.2014.02.017,10.1016/j.jcis.2014.02.017,10.1016/j.jcis.2014.02.017
"2,2-bis(octyloxymethyl)-N,N,N,N',N',N'-hexamethyl-1,3-propanediammoniumdiiodide",CCCCCCCCOCC(COCCCCCCCC)(C[N+](C)(C)C)C[N+](C)(C)C.[I-].[I-],"InChI=1S/C27H60N2O2.2HI/c1-9-11-13-15-17-19-21-30-25-27(23-28(3,4)5,24-29(6,7)8)26-31-22-20-18-16-14-12-10-2;;/h9-26H2,1-8H3;2*1H/q+2;;/p-2",LRUXRDJPFAFFGI-UHFFFAOYSA-L,698.27442516,0.00192,2.71669877129645,40.9,0.00000111,1.5,31.1,3.37,0.000427,25,gemini cationic,10.1016/j.jcis.2014.02.017,10.1016/j.ces.2022.118208,,10.1016/j.jcis.2014.02.017,10.1016/j.jcis.2014.02.017,10.1016/j.jcis.2014.02.017,10.1016/j.jcis.2014.02.017,10.1016/j.jcis.2014.02.017,10.1016/j.jcis.2014.02.017
"3-octoxypropane-1,2-diol",CCCCCCCCOCC(O)CO,"InChI=1S/C11H24O3/c1-2-3-4-5-6-7-8-14-10-11(13)9-12/h11-13H,2-10H2,1H3",GUPXYSSGJWIURR-UHFFFAOYSA-N,204.172544628,0.005794,2.23702150913226,,,,,,,25,non-ionic,10.1021/ie4016232,,,,,,,,
2-octoxyethanol,CCCCCCCCOCCO,"InChI=1S/C10H22O2/c1-2-3-4-5-6-7-9-12-10-8-11/h11H,2-10H2,1H3",ZQCIMPBZCZUDJM-UHFFFAOYSA-N,174.161979944,0.0049,2.30980391997149,26.8,0.0000052,0.32,45,3.17,0.000681,25,non-ionic,10.1021/acs.jpcb.1c05264,10.1016/j.ces.2022.118208,10.1002/9781118228920,10.1002/0471670561,10.1021/j100442a021,10.1021/j100442a021,10.1021/j100442a021,10.1021/j100442a021,
2-[2-(2-octoxyethoxy)ethoxy]ethanol,CCCCCCCCOCCOCCOCCO,"InChI=1S/C14H30O4/c1-2-3-4-5-6-7-9-16-11-13-18-14-12-17-10-8-15/h15H,2-14H2,1H3",XIVLVYLYOMHUGB-UHFFFAOYSA-N,262.21440944,0.0049,2.30980391997149,27,0.0000052,0.32,45,3.15192342849514,0.0427697830817247,25,non-ionic,10.1021/acs.jpcb.1c05264,10.1016/j.ces.2022.118208,10.1002/9781118228920,10.1063/1.1874872,10.1021/j150575a003,,10.1021/j150575a003,calculated,calculated
,CCCCCCCCOCCOCCOCCOCCO,"InChI=1S/C16H34O5/c1-2-3-4-5-6-7-9-18-11-13-20-15-16-21-14-12-19-10-8-17/h17H,2-16H2,1H3",FEOZZFHAVXYAMB-UHFFFAOYSA-N,306.240624188,,,30.5,,,,,,,non-ionic,,10.1016/j.ces.2022.118208,,10.1007/s00396-007-1747-0,,,,,
2-[2-[2-[2-(2-decoxyethoxy)ethoxy]ethoxy]ethoxy]ethanol,CCCCCCCCOCCOCCOCCOCCOCCO,"InChI=1S/C18H38O6/c1-2-3-4-5-6-7-9-20-11-13-22-15-17-24-18-16-23-14-12-21-10-8-19/h19H,2-18H2,1H3",MJELOWOAIAAUJT-UHFFFAOYSA-N,350.266838936,0.0092,2.03621217265445,28.8,0.0000014,1.15,43.2,4.7,0.00002,25,non-ionic,10.1021/acs.jpcb.1c05264,,10.1002/9781118228920,,10.1021/j100157a033,10.1021/j100157a033,10.1021/j100157a033,10.1021/j100157a033,10.1021/j100157a033
2-[2-[2-[2-[2-(2-hexadecoxyethoxy)ethoxy]ethoxy]ethoxy]ethoxy]ethanol,CCCCCCCCOCCOCCOCCOCCOCCOCCO,"InChI=1S/C20H42O7/c1-2-3-4-5-6-7-9-22-11-13-24-15-17-26-19-20-27-18-16-25-14-12-23-10-8-21/h21H,2-20H2,1H3",VVSOZSGWKFPDFX-UHFFFAOYSA-N,394.293053684,0.0099,2.00436480540245,31.8,,,40.2,,,25,non-ionic,10.1021/acs.jpcb.1c05264,10.1016/j.ces.2022.118208,10.1002/9781118228920,10.1039/TF9646000202,,,,,
,CCCCCCCCOCOC(O)[C@H]1OC(O)[C@H](O)[C@@H](O)[C@@H]1O,"InChI=1S/C15H30O8/c1-2-3-4-5-6-7-8-21-9-22-15(20)13-11(17)10(16)12(18)14(19)23-13/h10-20H,2-9H2,1H3/t10-,11-,12+,13-,14?,15?/m0/s1",SRNPGLOVLMCVOI-MNTSOTEJSA-N,338.19406792,0.0016,2.79588001734408,,,,,,,25,non-ionic,10.1021/ie4016232,,,,,,,,
,CCCCCCCCOCOC1[CH][C@H](O)[C@@H](O)C(O)O1,"InChI=1S/C14H27O6/c1-2-3-4-5-6-7-8-18-10-19-12-9-11(15)13(16)14(17)20-12/h9,11-17H,2-8,10H2,1H3/t11-,12?,13+,14?/m0/s1",RTMSBIIKRFLZRV-RJZJGCCBSA-N,291.180763584,0.004395,2.35704112059021,,,,,,,25,non-ionic,10.1021/ie4016232,,,,,,,,
,CCCCCCCCOCOC[C@H]1O[C@@H](O[C@@H]([C@H](O)[C@@H](O)CO)[C@H](O)CO)[C@H](O)[C@@H](O)[C@H]1O,"InChI=1S/C21H42O12/c1-2-3-4-5-6-7-8-30-12-31-11-15-17(27)18(28)19(29)21(32-15)33-20(14(25)10-23)16(26)13(24)9-22/h13-29H,2-12H2,1H3/t13-,14+,15+,16+,17-,18-,19+,20+,21-/m0/s1",LJTRUTZHRGDPHM-UIHRYHLPSA-N,486.267626784,0.002748,2.56098327161249,,,,,,,25,non-ionic,10.1021/ie4016232,,,,,,,,
,CCCCCCCCOCOC[C@H]1O[C@@H](O[C@H]2[C@H](O)[C@@H](O)[C@H](O)O[C@@H]2CO)[C@H](O)[C@@H](O)[C@H]1O,"InChI=1S/C21H40O12/c1-2-3-4-5-6-7-8-29-11-30-10-13-14(23)15(24)18(27)21(32-13)33-19-12(9-22)31-20(28)17(26)16(19)25/h12-28H,2-11H2,1H3/t12-,13-,14+,15+,16-,17-,18-,19-,20-,21+/m1/s1",DHSFNMJVZLYPNN-GHEFTXHDSA-N,484.25197672,0.00263,2.58004425151024,,,,,,,25,non-ionic,10.1021/ie4016232,,,,,,,,
"Octyl-D,L-glycerol",CCCCCCCCOC[C@@H](O)CO,"InChI=1S/C11H24O3/c1-2-3-4-5-6-7-8-14-10-11(13)9-12/h11-13H,2-10H2,1H3/t11-/m0/s1",GUPXYSSGJWIURR-NSHDSACASA-N,204.172544628,0.0058,2.23657200643706,24.5,0.0000052,0.32,47.47,3.16290346581308,0.0423027380456535,25,sugar-based non-ionic,10.1021/acs.iecr.6b02890,10.1016/j.jcis.2018.01.051,10.1016/j.molliq.2018.01.037,,10.1021/j150575a003,calculated,10.1021/j150575a003,calculated,calculated
1-ethylperoxyoctane,CCCCCCCCOOCC,"InChI=1S/C10H22O2/c1-3-5-6-7-8-9-10-12-11-4-2/h3-10H2,1-2H3",BTJPVBOKWDULKX-UHFFFAOYSA-N,174.161979944,0.004898,2.3099812192113,,,,,,,25,non-ionic,10.1021/ie4016232,,,,,,,,
,CCCCCCCCOOCCOCCOCC,"InChI=1S/C14H30O4/c1-3-5-6-7-8-9-10-17-18-14-13-16-12-11-15-4-2/h3-14H2,1-2H3",SDPYZSONVXQDKO-UHFFFAOYSA-N,262.21440944,0.007499,2.12499664639996,,,,,,,25,non-ionic,10.1021/ie4016232,,,,,,,,
,CCCCCCCCOOCCOCCOCCOCC,"InChI=1S/C16H34O5/c1-3-5-6-7-8-9-10-20-21-16-15-19-14-13-18-12-11-17-4-2/h3-16H2,1-2H3",PVIVHFJCYASYOA-UHFFFAOYSA-N,306.240624188,0.00865,2.06298389253519,,,,,,,25,non-ionic,10.1021/ie4016232,,,,,,,,
,CCCCCCCCOOCCOCCOCCOCCOCC,"InChI=1S/C18H38O6/c1-3-5-6-7-8-9-10-23-24-18-17-22-16-15-21-14-13-20-12-11-19-4-2/h3-18H2,1-2H3",DUEUAILZUDKZGY-UHFFFAOYSA-N,350.266838936,0.01099,1.95900230757651,,,,,,,25,non-ionic,10.1021/ie4016232,,,,,,,,
,CCCCCCCCOOCCOCCOCCOCCOCCOCC,"InChI=1S/C20H42O7/c1-3-5-6-7-8-9-10-26-27-20-19-25-18-17-24-16-15-23-14-13-22-12-11-21-4-2/h3-20H2,1-2H3",DZEFVURAUVPCTN-UHFFFAOYSA-N,394.293053684,0.009908,2.0040140020862,,,,,,,25,non-ionic,10.1021/ie4016232,,,,,,,,
,CCCCCCCCOOCCOCCOCCOCCOCCOCCOCCOCCOCC,"InChI=1S/C26H54O10/c1-3-5-6-7-8-9-10-35-36-26-25-34-24-23-33-22-21-32-20-19-31-18-17-30-16-15-29-14-13-28-12-11-27-4-2/h3-26H2,1-2H3",QZMXVIJWNZUGPD-UHFFFAOYSA-N,526.371697928,0.013,1.88605664769316,,,,,,,25,non-ionic,10.1021/ie4016232,,,,,,,,
,CCCCCCCCOP(=O)([O-])OCC[N+](C)(C)CCCCCCCC,"InChI=1S/C20H44NO4P/c1-5-7-9-11-13-15-17-21(3,4)18-20-25-26(22,23)24-19-16-14-12-10-8-6-2/h5-20H2,1-4H3",CJTNDIQALZLHGN-UHFFFAOYSA-N,393.300795518,0.001,3,,,,,,,25,gemini zwitterionic,10.1016/j.chemosphere.2011.05.031,,,,,,,,
sodium-octyl-sulfate,CCCCCCCCOS(=O)(=O)[O-].[Na+],"InChI=1S/C8H18O4S.Na/c1-2-3-4-5-6-7-8-12-13(9,10)11;/h2-8H2,1H3,(H,9,10,11);/q;+1/p-1",WFRKJMRGXGWHBM-UHFFFAOYSA-M,232.074524304,0.14,0.853871964321762,,,,,,,25,anionic,10.1021/ci600462d,,10.1006/jcis.1996.4680,,,,,,
2-Amino-2-deoxy-octyl-β-D-glucoside,CCCCCCCCO[C@@H]1O[C@H](CO)[C@@H](O)[C@H](O)[C@H]1N,"InChI=1S/C14H29NO5/c1-2-3-4-5-6-7-8-19-14-11(15)13(18)12(17)10(9-16)20-14/h10-14,16-18H,2-9,15H2,1H3/t10-,11-,12-,13-,14-/m1/s1",LFWLZEWJLCKNBG-DHGKCCLASA-N,291.204573028,0.023,1.63827216398241,32.5,0.00000346,0.48,39.47,2.62545040865638,0.072407136887367,25,sugar-based non-ionic,10.1021/acs.iecr.6b02890,10.1016/j.jcis.2018.01.051,10.1016/j.molliq.2018.01.037,,10.1021/la950485i,calculated,10.1021/la950485i,calculated,calculated
Octyl-β-D-glucoside,CCCCCCCCO[C@@H]1O[C@H](CO)[C@@H](O)[C@H](O)[C@H]1O,"InChI=1S/C14H28O6/c1-2-3-4-5-6-7-8-19-14-13(18)12(17)11(16)10(9-15)20-14/h10-18H,2-9H2,1H3/t10-,11-,12+,13-,14-/m1/s1",HEGSGKPQLMEBJL-RKQHYHRCSA-N,292.188588616,0.02,1.69897000433602,30.5,0.00000346,0.48,41.47,2.78739729974578,0.0615812831398174,25,sugar-based non-ionic,10.1021/acs.iecr.6b02890,10.1016/j.jcis.2018.01.051,10.1016/j.molliq.2018.01.037,,10.1007/BF02541865,calculated,10.1007/BF02541865,calculated,calculated
Octyl-β-D-galactoside,CCCCCCCCO[C@@H]1O[C@H](CO)[C@H](O)[C@H](O)[C@H]1O,"InChI=1S/C14H28O6/c1-2-3-4-5-6-7-8-19-14-13(18)12(17)11(16)10(9-15)20-14/h10-18H,2-9H2,1H3/t10-,11+,12+,13-,14-/m1/s1",HEGSGKPQLMEBJL-MBJXGIAVSA-N,292.188588616,0.016,1.79588001734408,30.5,0.00000346,0.48,41.47,2.88430731275384,0.0558934928399284,25,sugar-based non-ionic,10.1021/acs.iecr.6b02890,10.1016/j.jcis.2018.01.051,10.1016/j.molliq.2018.01.037,,10.1007/BF02541865,calculated,10.1007/BF02541865,calculated,calculated
Octyl-α-D-mannoside,CCCCCCCCO[C@H]1O[C@H](CO)[C@@H](O)[C@H](O)[C@@H]1O,"InChI=1S/C14H28O6/c1-2-3-4-5-6-7-8-19-14-13(18)12(17)11(16)10(9-15)20-14/h10-18H,2-9H2,1H3/t10-,11-,12+,13+,14+/m1/s1",HEGSGKPQLMEBJL-DGTMBMJNSA-N,292.188588616,0.006,2.22184874961636,30.5,0.00000346,0.48,41.47,3.31027604502612,0.0365060950367566,25,sugar-based non-ionic,10.1021/acs.iecr.6b02890,10.1016/j.jcis.2018.01.051,10.1016/j.molliq.2018.01.037,,10.1007/BF02541865,calculated,10.1007/BF02541865,calculated,calculated
"N,N,N′,N′-tetramethyloctylenediaminewith2-bromo-N-(4-(hexyloxy)phenyl)acetamide",CCCCCCCCOc1ccc(NC(=O)C[N+](C)(C)CCCCCC[N+](C)(C)CC(=O)Nc2ccc(OCCCCCCCC)cc2)cc1.[Br-].[Br-],"InChI=1S/C42H70N4O4.2BrH/c1-7-9-11-13-17-21-33-49-39-27-23-37(24-28-39)43-41(47)35-45(3,4)31-19-15-16-20-32-46(5,6)36-42(48)44-38-25-29-40(30-26-38)50-34-22-18-14-12-10-8-2;;/h23-30H,7-22,31-36H2,1-6H3;2*1H",LLORBXYCDIJVDX-UHFFFAOYSA-N,854.392030984,0.000109,3.96257350205938,36,0.00000099,1.66,36,4.92,0.000012,25,gemini cationic,10.1016/j.molliq.2017.06.008,"['10.1016/j.ces.2022.118208', '10.1016/j.molliq.2017.06.008', '10.1201/9780203911518']",10.3390/pr7080502,10.1016/j.molliq.2017.06.008,10.1016/j.molliq.2017.06.008,,10.1016/j.molliq.2017.06.008,10.1016/j.molliq.2017.06.008,
"N,N,N′,N′-tetramethyloctylenediaminewith2-bromo-N-(4-(butyloxy)phenyl)acetamide",CCCCCCCCOc1ccc(NC(=O)C[N+](C)(C)CCCC[N+](C)(C)CC(=O)Nc2ccc(OCCCCCCCC)cc2)cc1.[Br-].[Br-],"InChI=1S/C40H66N4O4.2BrH/c1-7-9-11-13-15-19-31-47-37-25-21-35(22-26-37)41-39(45)33-43(3,4)29-17-18-30-44(5,6)34-40(46)42-36-23-27-38(28-24-36)48-32-20-16-14-12-10-8-2;;/h21-28H,7-20,29-34H2,1-6H3;2*1H",FXDZXRCJJSNSRN-UHFFFAOYSA-N,826.360730856,0.000208,3.68193666503724,32,0.00000114,1.46,40,4.67,0.0000214,25,gemini cationic,10.1016/j.molliq.2017.06.008,"['10.1016/j.ces.2022.118208', '10.1016/j.molliq.2017.06.008', '10.1201/9780203911518']",,10.1016/j.molliq.2017.06.008,10.1016/j.molliq.2017.06.008,,10.1016/j.molliq.2017.06.008,10.1016/j.molliq.2017.06.008,
"N,N,N′,N′-tetramethyloctylenediaminewith2-bromo-N-(4-(ethyloxy)phenyl)acetamide",CCCCCCCCOc1ccc(NC(=O)C[N+](C)(C)CC[N+](C)(C)CC(=O)Nc2ccc(OCCCCCCCC)cc2)cc1.[Br-].[Br-],"InChI=1S/C38H62N4O4.2BrH/c1-7-9-11-13-15-17-29-45-35-23-19-33(20-24-35)39-37(43)31-41(3,4)27-28-42(5,6)32-38(44)40-34-21-25-36(26-22-34)46-30-18-16-14-12-10-8-2;;/h19-26H,7-18,27-32H2,1-6H3;2*1H",WRNPLFPFGAZEGV-UHFFFAOYSA-N,798.329430728,0.000251,3.60032627851896,30.4,0.00000111,1.49,41.6,4.6,0.0000251,25,gemini cationic,10.1016/j.molliq.2017.06.008,"['10.1016/j.ces.2022.118208', '10.1016/j.molliq.2017.06.008', '10.1201/9780203911518']",,10.1016/j.molliq.2017.06.008,10.1016/j.molliq.2017.06.008,,10.1016/j.molliq.2017.06.008,10.1016/j.molliq.2017.06.008,
sodium-octane-1-sulfonate,CCCCCCCCS(=O)(=O)[O-].[Na+],"InChI=1S/C8H18O3S.Na/c1-2-3-4-5-6-7-8-12(9,10)11;/h2-8H2,1H3,(H,9,10,11);/q;+1/p-1",HRQDCDQDOPSGBR-UHFFFAOYSA-M,216.079609684,0.16,0.795880017344075,,,,,,,25,anionic,10.1021/ci600462d,,,,,,,,
S-octyl5-thio-D-arabinonolactone,CCCCCCCCSC(O)[C@H]1OC(=O)[C@@H](O)[C@@H]1O,"InChI=1S/C13H24O5S/c1-2-3-4-5-6-7-8-19-13(17)11-9(14)10(15)12(16)18-11/h9-11,13-15,17H,2-8H2,1H3/t9-,10-,11-,13?/m0/s1",BPBBNDZRLVSWMY-BGJXXYSSSA-N,292.134444868,0.00048,3.31875876262441,24.1,0.00000438,0.38,48.65,4.7,0.00002,20,sugar-based non-ionic,10.1021/acs.iecr.6b02890,10.1016/j.jcis.2018.01.051,10.1016/j.molliq.2018.01.037,,10.1016/j.jcis.2004.01.020,calculated,10.1016/j.jcis.2004.01.020,10.1016/j.jcis.2004.01.020,
S-octyl5-thio-D-xylonolactone,CCCCCCCCSC1OC(=O)[C@H](O)[C@@H](O)[C@@H]1O,"InChI=1S/C13H24O5S/c1-2-3-4-5-6-7-8-19-13-11(16)9(14)10(15)12(17)18-13/h9-11,13-16H,2-8H2,1H3/t9-,10-,11+,13?/m1/s1",NBMJHQDUNPDMJY-WHKIEGFNSA-N,292.134444868,0.00053,3.27572413039921,25.7,0.00000472,0.35,47.05,4.4,0.0000398,20,sugar-based non-ionic,10.1021/acs.iecr.6b02890,10.1016/j.jcis.2018.01.051,10.1016/j.molliq.2018.01.037,,10.1016/j.jcis.2004.01.020,calculated,10.1016/j.jcis.2004.01.020,10.1016/j.jcis.2004.01.020,
Octyl-β-D-thioglucoside,CCCCCCCCSC1OC(CO)C(O)C(O)C1O,"InChI=1S/C14H28O5S/c1-2-3-4-5-6-7-8-20-14-13(18)12(17)11(16)10(9-15)19-14/h10-18H,2-9H2,1H3",CGVLVOOFCGWBCS-UHFFFAOYSA-N,308.165744996,0.0085,2.07058107428571,28.7,0.00000306,0.59,44.9,3.42707068851475,0.0324819513002603,20,sugar-based non-ionic,10.1021/acs.iecr.6b02890,10.1016/j.jcis.2018.01.051,10.1016/j.molliq.2018.01.037,,10.1021/jp0480551,10.1021/jp0480551,10.1021/jp0480551,calculated,calculated
,CCCCCCCCSCC(CO)OCC(O)CO,"InChI=1S/C14H30O4S/c1-2-3-4-5-6-7-8-19-12-14(10-16)18-11-13(17)9-15/h13-17H,2-12H2,1H3",OKMBDCKASPABBQ-UHFFFAOYSA-N,294.18648044,0.008492,2.07099001450604,,,,,,,25,non-ionic,10.1021/ie4016232,,,,,,,,
S-octyl1-thio-L-ribitol,CCCCCCCCSC[C@@H](O)[C@@H](O)[C@@H](O)CO,"InChI=1S/C13H28O4S/c1-2-3-4-5-6-7-8-18-10-12(16)13(17)11(15)9-14/h11-17H,2-10H2,1H3/t11-,12+,13-/m0/s1",FDSWKFGOZVKWGW-XQQFMLRXSA-N,280.170830376,0.00038,3.42021640338319,34.8,0.00000375,0.44,37.95,5.6,0.00000251,20,sugar-based non-ionic,10.1021/acs.iecr.6b02890,10.1016/j.jcis.2004.01.020,10.1016/j.molliq.2018.01.037,,10.1016/j.jcis.2004.01.020,calculated,10.1016/j.jcis.2004.01.020,10.1016/j.jcis.2004.01.020,
S-octyl1-thio-D-lyxitol,CCCCCCCCSC[C@@H](O)[C@@H](O)[C@H](O)CO,"InChI=1S/C13H28O4S/c1-2-3-4-5-6-7-8-18-10-12(16)13(17)11(15)9-14/h11-17H,2-10H2,1H3/t11-,12-,13+/m1/s1",FDSWKFGOZVKWGW-UPJWGTAASA-N,280.170830376,0.0018,2.74472749489669,29.3,0.00000394,0.42,43.45,5.2,0.00000631,20,sugar-based non-ionic,10.1021/acs.iecr.6b02890,10.1016/j.jcis.2018.01.051,10.1016/j.molliq.2018.01.037,,10.1016/j.jcis.2004.01.020,calculated,10.1016/j.jcis.2004.01.020,10.1016/j.jcis.2004.01.020,