IUPAC_name,SMILES,InChI,InChIKey,Molecular_Weight,CMC,pCMC,AW_ST_CMC,Gamma_max,Area_min,Pi_CMC,PC20,C20,Temp_Celsius,Surfactant_Type,Ref_CMC,Ref_AW_ST_CMC,SubRef_CMC,SubRef_AW_ST_CMC,Ref_Gamma_max,Ref_Pi_CMC,Ref_Area_min,Ref_PC20,Ref_C20
bis(hexadecyldimethylammonium)hexane,CCCCCCCCCCCCCCCC[N+](C)(C)CC[N+](C)(C)CCCCCCCCCCCCCCCC.[Br-].[Br-],"InChI=1S/C38H82N2.2BrH/c1-7-9-11-13-15-17-19-21-23-25-27-29-31-33-35-39(3,4)37-38-40(5,6)36-34-32-30-28-26-24-22-20-18-16-14-12-10-8-2;;/h7-38H2,1-6H3;2*1H/q+2;;/p-2",VDROVMWXXOMDPT-UHFFFAOYSA-L,724.484474824,2.09990670376242E-05,4.6778,28.5,0.000000776,2.14,43.28,6.58,0.00026,25,gemini cationic,"['10.1007/s11743-011-1269-0', '10.1016/j.chemosphere.2011.05.031']",10.1016/j.ces.2022.118208,,10.1007/s11743-011-1269-0,10.1007/s11743-011-1269-0,10.1007/s11743-011-1269-0,10.1007/s11743-011-1269-0,10.1007/s11743-011-1269-0,10.1007/s11743-011-1269-0
"N,N-dimethyl-N-hexadecyl-N-(m-methoxybenzyl)ammoniumchloride",CCCCCCCCCCCCCCCC[N+](C)(C)Cc1cccc(OC)c1.[Cl-],"InChI=1S/C26H48NO.ClH/c1-5-6-7-8-9-10-11-12-13-14-15-16-17-18-22-27(2,3)24-25-20-19-21-26(23-25)28-4;/h19-21,23H,5-18,22,24H2,1-4H3;1H/q+1;/p-1",DEZHQVSCBFJHGY-UHFFFAOYSA-M,425.342442836,0.00031,3.50863830616573,42.1,0.0000015,1.1,29.9,4.3,0.0000501,25,cationic,10.1039/C4RA07363K,10.1016/j.ces.2022.118208,,10.1039/C4RA07363K,10.1039/C4RA07363K,,10.1039/C4RA07363K,10.1039/C4RA07363K,
,CCCCCCCCCCCCCCCC[N+](C)(C)Cc1ccccc1.[Cl-],"InChI=1S/C25H46N.ClH/c1-4-5-6-7-8-9-10-11-12-13-14-15-16-20-23-26(2,3)24-25-21-18-17-19-22-25;/h17-19,21-22H,4-16,20,23-24H2,1-3H3;1H/q+1;/p-1",SXPWTBGAZSPLHA-UHFFFAOYSA-M,395.331878152,,,40.5,,,,,,,cationic,,10.1016/j.ces.2022.118208,,10.1021/acsomega.0c00294,,,,,
"N-hexadecyl–N,N-dimethyl-N-(o-hydroxymethyl)benzylammoniumchloride",CCCCCCCCCCCCCCCC[N+](C)(C)Cc1ccccc1CO.[Cl-],"InChI=1S/C26H48NO.ClH/c1-4-5-6-7-8-9-10-11-12-13-14-15-16-19-22-27(2,3)23-25-20-17-18-21-26(25)24-28;/h17-18,20-21,28H,4-16,19,22-24H2,1-3H3;1H/q+1;/p-1",SDFVTJQZTRLHFG-UHFFFAOYSA-M,425.342442836,0.00025,3.60205999132796,42.3,0.00000185,0.89,29.7,4.04,0.0000906,25,cationic,10.1007/s11743-015-1706-6,10.1016/j.ces.2022.118208,,10.1007/s11743-015-1706-6,10.1007/s11743-015-1706-6,,10.1007/s11743-015-1706-6,10.1007/s11743-015-1706-6,
"N’‑HexadecylN’,N’dimethyl‑4‑piperidino‑4‑oxobutanoylhydraziniumiodide",CCCCCCCCCCCCCCCC[N+](C)(C)NC(=O)CCC(=O)N1CCCCC1.[I-],"InChI=1S/C27H53N3O2.HI/c1-4-5-6-7-8-9-10-11-12-13-14-15-16-20-25-30(2,3)28-26(31)21-22-27(32)29-23-18-17-19-24-29;/h4-25H2,1-3H3;1H",XYYJFFFCGKUVJC-UHFFFAOYSA-N,579.326075968,0.00019,3.72124639904717,34.6,0.00000224,0.74,37.18,4.29,0.0000513,25,cationic,10.1007/s13738-021-02247-3,10.1016/j.ces.2022.118208,,10.1007/s13738-021-02247-3,10.1007/s13738-021-02247-3,10.1007/s13738-021-02247-3,10.1007/s13738-021-02247-3,10.1007/s13738-021-02247-3,10.1007/s13738-021-02247-3
"N’‑HexadecylN’,N’dimethyl‑4‑morpholino‑4‑oxobutanoylhydraziniumiodide",CCCCCCCCCCCCCCCC[N+](C)(C)NC(=O)CCC(=O)N1CCOCC1.[I-],"InChI=1S/C26H51N3O3.HI/c1-4-5-6-7-8-9-10-11-12-13-14-15-16-17-22-29(2,3)27-25(30)18-19-26(31)28-20-23-32-24-21-28;/h4-24H2,1-3H3;1H",OHKMKUCWGJKNIR-UHFFFAOYSA-N,581.305340524,0.00037,3.43179827593301,36.5,0.00000216,0.77,35.28,4.15,0.0000708,25,cationic,10.1007/s13738-021-02247-3,10.1016/j.ces.2022.118208,,10.1007/s13738-021-02247-3,10.1007/s13738-021-02247-3,10.1007/s13738-021-02247-3,10.1007/s13738-021-02247-3,10.1007/s13738-021-02247-3,10.1007/s13738-021-02247-3
"E)-4-(((1,5-dimethyl-3-oxo-2-phenyl-2,3-dihydro-1H-pyrazol-4-yl)imino)methyl)-N-hexadecyl-N,N-dimethylbenzenaminiumbromide",CCCCCCCCCCCCCCCC[N+](C)(C)c1ccc(C=Nc2c(C)n(C)n(-c3ccccc3)c2=O)cc1.[Br-],"InChI=1S/C36H55N4O.BrH/c1-6-7-8-9-10-11-12-13-14-15-16-17-18-22-29-40(4,5)34-27-25-32(26-28-34)30-37-35-31(2)38(3)39(36(35)41)33-23-20-19-21-24-33;/h19-21,23-28,30H,6-18,22,29H2,1-5H3;1H/q+1;/p-1",YJEZZLNMJWICNV-UHFFFAOYSA-M,638.35592448,0.0004,3.39794000867204,37,0.0000008,0.206,34,3.5,0.000316,20,cationic,10.1016/j.ejpe.2017.05.006,10.1016/j.ces.2022.118208,,10.1016/j.ejpe.2017.05.006,10.1016/j.ejpe.2017.05.006,10.1016/j.ejpe.2017.05.006,10.1016/j.ejpe.2017.05.006,10.1016/j.ejpe.2017.05.006,
,CCCCCCCCCCCCCCCC[N+](CC)(CC)CCO.[Br-],"InChI=1S/C22H48NO.BrH/c1-4-7-8-9-10-11-12-13-14-15-16-17-18-19-20-23(5-2,6-3)21-22-24;/h24H,4-22H2,1-3H3;1H/q+1;/p-1",VMCRHMJDVUYCMF-UHFFFAOYSA-M,421.291927256,,,38.6,,,,,,,cationic,,10.1016/j.ces.2022.118208,,10.1007/s11743-010-1237-0,,,,,
,CCCCCCCCCCCCCCCC[N+](CCC)(CCC)CCC.[Br-],"InChI=1S/C25H54N.BrH/c1-5-9-10-11-12-13-14-15-16-17-18-19-20-21-25-26(22-6-2,23-7-3)24-8-4;/h5-25H2,1-4H3;1H/q+1;/p-1",FIUXEBBRCRBWTE-UHFFFAOYSA-M,447.343962828,,,43.5,,,,,,,cationic,,10.1016/j.ces.2022.118208,,10.1021/j100794a010,,,,,
,CCCCCCCCCCCCCCCC[N+](CCC)(CCC)CCCC[N+](CCC)(CCC)CCCCCCCCCCCCCCCC.[Br-].[Br-],"InChI=1S/C48H102N2.2BrH/c1-7-13-15-17-19-21-23-25-27-29-31-33-35-37-45-49(41-9-3,42-10-4)47-39-40-48-50(43-11-5,44-12-6)46-38-36-34-32-30-28-26-24-22-20-18-16-14-8-2;;/h7-48H2,1-6H3;2*1H/q+2;;/p-2",QVIKZMGJWKGWRU-UHFFFAOYSA-L,864.640975464,0.0000039,5.4089353929735,48.37,0.00000067,2.49,23.6,5.72527067342907,0.00326247009248721,25,gemini cationic,10.1016/j.colsurfa.2015.02.005,10.1016/j.ces.2022.118208,,10.1016/j.colsurfa.2015.02.005,10.1016/j.colsurfa.2015.02.005,calculated,10.1016/j.colsurfa.2015.02.005,calculated,calculated
di-2-hydroxypropylhexadecylamines.,CCCCCCCCCCCCCCCC[N+](CCCCC[N+](CCCCCCCCCCCCCCCC)(CC(C)O)CC(C)O)(CC(C)O)CC(C)O.[Br-].[Br-],"InChI=1S/C49H104N2O4.2BrH/c1-7-9-11-13-15-17-19-21-23-25-27-29-31-34-38-50(42-46(3)52,43-47(4)53)40-36-33-37-41-51(44-48(5)54,45-49(6)55)39-35-32-30-28-26-24-22-20-18-16-14-12-10-8-2;;/h46-49,52-55H,7-45H2,1-6H3;2*1H/q+2;;/p-2",LJECNAFVHGVGTM-UHFFFAOYSA-L,942.636284008,0.000079,4.10237290870956,27.9,0.00000318,0.78,44.1,5.05,0.00000891,25,gemini cationic,10.1016/j.colsurfa.2019.05.019,10.1016/j.ces.2022.118208,,10.1016/j.colsurfa.2019.05.019,10.1016/j.colsurfa.2019.05.019,10.1016/j.colsurfa.2019.05.019,10.1016/j.colsurfa.2019.05.019,10.1016/j.colsurfa.2019.05.019,
2-hydroxypropylhexadecylamines,CCCCCCCCCCCCCCCC[N+](CCCCC[N+](CCCCCCCCCCCCCCCC)CC(C)O)CC(C)O.[Br-].[Br-],"InChI=1S/C43H90N2O2.2BrH/c1-5-7-9-11-13-15-17-19-21-23-25-27-29-32-36-44(40-42(3)46)38-34-31-35-39-45(41-43(4)47)37-33-30-28-26-24-22-20-18-16-14-12-10-8-6-2;;/h42-43,46-47H,5-41H2,1-4H3;2*1H/q+2;;/p-2",QZLVJVLZMNKYHS-UHFFFAOYSA-L,824.53690432,0.00009,4.04575749056068,30,0.00000284,0.88,42,5.02,0.00000955,25,gemini cationic,10.1016/j.colsurfa.2019.05.019,10.1016/j.ces.2022.118208,,10.1016/j.colsurfa.2019.05.019,10.1016/j.colsurfa.2019.05.019,10.1016/j.colsurfa.2019.05.019,10.1016/j.colsurfa.2019.05.019,10.1016/j.colsurfa.2019.05.019,
"1,4-dihexadecyl-1,4-dimethylpiperazine-1,4-diiumbromide",CCCCCCCCCCCCCCCC[N+]1(C)CC[N+](C)(CCCCCCCCCCCCCCCC)CC1.[Br-].[Br-],"InChI=1S/C38H80N2.2BrH/c1-5-7-9-11-13-15-17-19-21-23-25-27-29-31-33-39(3)35-37-40(4,38-36-39)34-32-30-28-26-24-22-20-18-16-14-12-10-8-6-2;;/h5-38H2,1-4H3;2*1H/q+2;;/p-2",CDMYYRGERKDQLZ-UHFFFAOYSA-L,722.46882476,0.0024,2.61978875828839,38,0.000000776,2.1,34,4.89,0.000013,25,gemini cationic,10.1080/01932691.2017.1381916,10.1016/j.ces.2022.118208,,10.1080/01932691.2017.1381916,10.1080/01932691.2017.1381916,10.1080/01932691.2017.1381916,10.1080/01932691.2017.1381916,10.1080/01932691.2017.1381916,
,CCCCCCCCCCCCCCCC[N+]1(CC#CC[N+]2(CCCCCCCCCCCCCCCC)CCCC2)CCCC1.[Br-].[Br-],"InChI=1S/C44H86N2.2BrH/c1-3-5-7-9-11-13-15-17-19-21-23-25-27-29-37-45(39-31-32-40-45)43-35-36-44-46(41-33-34-42-46)38-30-28-26-24-22-20-18-16-14-12-10-8-6-4-2;;/h3-34,37-44H2,1-2H3;2*1H/q+2;;/p-2",ZRRTVLATQMOTOD-UHFFFAOYSA-L,800.515774952,0.00004395,4.35704112059021,,,,,,,25,gemini cationic,10.1063/5.0051623,,,,,,,,
,CCCCCCCCCCCCCCCC[N+]1(CC#CC[N+]2(CCCCCCCCCCCCCCCC)CCCCC2)CCCCC1.[Br-].[Br-],"InChI=1S/C46H90N2.2BrH/c1-3-5-7-9-11-13-15-17-19-21-23-25-27-31-39-47(41-33-29-34-42-47)45-37-38-46-48(43-35-30-36-44-48)40-32-28-26-24-22-20-18-16-14-12-10-8-6-4-2;;/h3-36,39-46H2,1-2H3;2*1H/q+2;;/p-2",XTUWEXANWISBTM-UHFFFAOYSA-L,828.54707508,0.0000597,4.22402566887063,,,,,,,25,gemini cationic,10.1063/5.0051623,,,,,,,,
,CCCCCCCCCCCCCCCC[N+]1(CCCC[N+]2(CCCCCCCCCCCCCCCC)CCCC2)CCCC1.[Br-].[Br-],"InChI=1S/C44H90N2.2BrH/c1-3-5-7-9-11-13-15-17-19-21-23-25-27-29-37-45(39-31-32-40-45)43-35-36-44-46(41-33-34-42-46)38-30-28-26-24-22-20-18-16-14-12-10-8-6-4-2;;/h3-44H2,1-2H3;2*1H/q+2;;/p-2",QCBCYKXBUFLJBQ-UHFFFAOYSA-L,804.54707508,0.00002897,4.53805150479624,37.6,,,34.37,,,25,gemini cationic,10.1063/5.0051623,10.1016/j.ces.2022.118208,,10.1016/j.jcis.2011.12.025,,calculated,,,
morpholinium-bishexadecyl-biphenylene,CCCCCCCCCCCCCCCC[N+]1(Cc2ccc(-c3ccc(C[N+]4(CCCCCCCCCCCCCCCC)CCOCC4)cc3)cc2)CCOCC1.[Cl-].[Cl-],"InChI=1S/C54H94N2O2.2ClH/c1-3-5-7-9-11-13-15-17-19-21-23-25-27-29-39-55(41-45-57-46-42-55)49-51-31-35-53(36-32-51)54-37-33-52(34-38-54)50-56(43-47-58-48-44-56)40-30-28-26-24-22-20-18-16-14-12-10-8-6-4-2;;/h31-38H,3-30,39-50H2,1-2H3;2*1H/q+2;;/p-2",OFFHFFFFXHNQFF-UHFFFAOYSA-L,872.669235608,0.0000456,4.34103515733557,36,0.00000069,2.44,36,5.7,0.000002,25,gemini cationic,10.1016/j.molliq.2021.115781,10.1016/j.ces.2022.118208,,10.1016/j.molliq.2021.115781,10.1016/j.molliq.2021.115781,10.1016/j.molliq.2021.115781,10.1016/j.molliq.2021.115781,10.1016/j.molliq.2021.115781,10.1016/j.molliq.2021.115781
morpholinium-bishexadecyl-phenylene,CCCCCCCCCCCCCCCC[N+]1(Cc2ccc(C[N+]3(CCCCCCCCCCCCCCCC)CCOCC3)cc2)CCOCC1.[Cl-].[Cl-],"InChI=1S/C48H90N2O2.2ClH/c1-3-5-7-9-11-13-15-17-19-21-23-25-27-29-35-49(37-41-51-42-38-49)45-47-31-33-48(34-32-47)46-50(39-43-52-44-40-50)36-30-28-26-24-22-20-18-16-14-12-10-8-6-4-2;;/h31-34H,3-30,35-46H2,1-2H3;2*1H/q+2;;/p-2",BOIACGSSOVFYRQ-UHFFFAOYSA-L,796.63793548,0.000051,4.29242982390206,49.1,0.00000049,1.77,22.9,4.49,0.0000324,25,gemini cationic,10.1016/j.molliq.2021.115781,10.1016/j.ces.2022.118208,,10.1016/j.molliq.2021.115781,10.1016/j.molliq.2021.115781,10.1016/j.molliq.2021.115781,10.1016/j.molliq.2021.115781,10.1016/j.molliq.2021.115781,10.1016/j.molliq.2021.115781
,CCCCCCCCCCCCCCCC[N+]1CCCCC1.[Cl-],"InChI=1S/C21H43N.ClH/c1-2-3-4-5-6-7-8-9-10-11-12-13-14-16-19-22-20-17-15-18-21-22;/h2-21H2,1H3;1H/q+1;/p-1",VXDXNKNSWNFBAU-UHFFFAOYSA-M,344.308403056,0.0009,3.04575749056068,,,,,,,25,cationic,10.1016/0021-9797(76)90178-8,,,,,,,,
1-hexadecylpyridin-1-ium-bromide,CCCCCCCCCCCCCCCC[n+]1ccccc1.[Br-],"InChI=1S/C21H38N.BrH/c1-2-3-4-5-6-7-8-9-10-11-12-13-14-16-19-22-20-17-15-18-21-22;/h15,17-18,20-21H,2-14,16,19H2,1H3;1H/q+1;/p-1",DVBJBNKEBPCGSY-UHFFFAOYSA-M,383.218762316,0.00064,3.19382002601611,34.8,0.00000405,0.41,37.2,3.7,0.0002,25,cationic,"['10.1016/j.tca.2004.11.009', '10.1021/acs.jpcb.1c05264', '10.1016/j.tca.2004.11.009']",10.1016/j.ces.2022.118208,10.1002/9781118228920,10.1201/9780203911518,10.1007/s11743-013-1436-6,,10.1016/j.tca.2004.11.009,,10.1016/j.tca.2004.11.009
Hexadecylpyridiniumchloride,CCCCCCCCCCCCCCCC[n+]1ccccc1.[Cl-],"InChI=1S/C21H38N.ClH/c1-2-3-4-5-6-7-8-9-10-11-12-13-14-16-19-22-20-17-15-18-21-22;/h15,17-18,20-21H,2-14,16,19H2,1H3;1H/q+1;/p-1",YMKDRGPMQRFJGP-UHFFFAOYSA-M,339.269277896,0.0009,3.04575749056068,42,0.00000088,0.42,30,4.3,0.00005,25,cationic,"['10.1016/j.tca.2004.11.009', '10.1021/acs.jpcb.1c05264']",10.1016/j.ces.2022.118208,10.1002/9781118228920,10.1016/j.colsurfa.2005.02.018,,,10.1016/j.tca.2004.11.009,,10.1016/j.tca.2004.11.009
,CCCCCCCCCCCCCCCC[n+]1ccn(CCOC(=O)NCCCC)c1.[Br-],"InChI=1S/C26H49N3O2.BrH/c1-3-5-7-8-9-10-11-12-13-14-15-16-17-18-20-28-21-22-29(25-28)23-24-31-26(30)27-19-6-4-2;/h21-22,25H,3-20,23-24H2,1-2H3;1H",KLADHKJNJVBUSG-UHFFFAOYSA-N,515.30863994,,,42,,,,,,,cationic,,10.1016/j.ces.2022.118208,,10.1016/j.molliq.2020.114094,,,,,
,CCCCCCCCCCCCCCCCc1cc[nH+]cc1.[Br-],"InChI=1S/C21H37N.BrH/c1-2-3-4-5-6-7-8-9-10-11-12-13-14-15-16-21-17-19-22-20-18-21;/h17-20H,2-16H2,1H3;1H",HRMCRUVQDSWXBG-UHFFFAOYSA-N,383.218762316,0.00064,3.19382002601611,,,,,,,25,cationic,10.1002/9781118228920.ch3,,,,,,,,
,CCCCCCCCCCCCCCCCc1cc[nH+]cc1.[Cl-],"InChI=1S/C21H37N.ClH/c1-2-3-4-5-6-7-8-9-10-11-12-13-14-15-16-21-17-19-22-20-18-21;/h17-20H,2-16H2,1H3;1H",WPCGBQZVJSKDMP-UHFFFAOYSA-N,339.269277896,0.0009,3.04575749056068,,,,,,,25,cationic,10.1002/9781118228920.ch3,,,,,,,,
,CCCCCCCCCCCCCCCCn1cc[n+](C)c1.[Br-],"InChI=1S/C20H39N2.BrH/c1-3-4-5-6-7-8-9-10-11-12-13-14-15-16-17-22-19-18-21(2)20-22;/h18-20H,3-17H2,1-2H3;1H/q+1;/p-1",QPERNWXRUSFVPU-UHFFFAOYSA-M,386.229661348,,,38,,,,,,,cationic,,10.1016/j.ces.2022.118208,,10.1021/je400861g,,,,,
,CCCCCCCCCCCCCCCCn1cc[n+](C)c1.[Cl-],"InChI=1S/C20H39N2.ClH/c1-3-4-5-6-7-8-9-10-11-12-13-14-15-16-17-22-19-18-21(2)20-22;/h18-20H,3-17H2,1-2H3;1H/q+1;/p-1",ZCPPLZJPPBIWRU-UHFFFAOYSA-M,342.280176928,,,37,,,,,,,cationic,,10.1016/j.ces.2022.118208,,10.1021/je400861g,,,,,
,CCCCCCCCCCCCCCCCn1cc[n+](COCCCCCCOC[n+]2ccn(CCCCCCCCCCCCCCCC)c2)c1.[Cl-].[Cl-],"InChI=1S/C46H88N4O2.2ClH/c1-3-5-7-9-11-13-15-17-19-21-23-25-27-31-35-47-37-39-49(43-47)45-51-41-33-29-30-34-42-52-46-50-40-38-48(44-50)36-32-28-26-24-22-20-18-16-14-12-10-8-6-4-2;;/h37-40,43-44H,3-36,41-42,45-46H2,1-2H3;2*1H/q+2;;/p-2",BLXSDTRZTBUQNO-UHFFFAOYSA-L,798.628433416,0.0002238721138568,3.65000000000007,26.4,0.00000177,1.01,45.6,4.49446665894296,0.0111706367858721,25,gemini cationic,10.1111/cbdd.12236,10.1111/cbdd.12236,10.1111/cbdd.12236,,10.1111/cbdd.12236,10.1111/cbdd.12236,10.1111/cbdd.12236,calculated,calculated
,CCCCCCCCCCCCCCCCn1cc[n+](COCCCCCOC[n+]2ccn(CCCCCCCCCCCCCCCC)c2)c1.[Cl-].[Cl-],"InChI=1S/C45H86N4O2.2ClH/c1-3-5-7-9-11-13-15-17-19-21-23-25-27-30-34-46-36-38-48(42-46)44-50-40-32-29-33-41-51-45-49-39-37-47(43-49)35-31-28-26-24-22-20-18-16-14-12-10-8-6-4-2;;/h36-39,42-43H,3-35,40-41,44-45H2,1-2H3;2*1H/q+2;;/p-2",MJASWZSPWVSNRT-UHFFFAOYSA-L,784.612783352,0.0002454708915685,3.61000000000001,29.6,0.00000208,0.88,42.4,4.23878256636433,0.0144251428114329,25,gemini cationic,10.1111/cbdd.12236,10.1111/cbdd.12236,10.1111/cbdd.12236,,10.1111/cbdd.12236,10.1111/cbdd.12236,10.1111/cbdd.12236,calculated,calculated
,CCCCCCCCCCCCCCCCn1cc[n+](COCCCCOC[n+]2ccn(CCCCCCCCCCCCCCCC)c2)c1.[Cl-].[Cl-],"InChI=1S/C44H84N4O2.2ClH/c1-3-5-7-9-11-13-15-17-19-21-23-25-27-29-33-45-35-37-47(41-45)43-49-39-31-32-40-50-44-48-38-36-46(42-48)34-30-28-26-24-22-20-18-16-14-12-10-8-6-4-2;;/h35-38,41-42H,3-34,39-40,43-44H2,1-2H3;2*1H/q+2;;/p-2",XFCVUOGALFCAIC-UHFFFAOYSA-L,770.597133288,0.0002630267991895,3.58000000000006,31.5,0.00000211,0.86,40.5,4.14726660100241,0.0158075658704497,25,gemini cationic,10.1111/cbdd.12236,10.1111/cbdd.12236,10.1111/cbdd.12236,,10.1111/cbdd.12236,10.1111/cbdd.12236,10.1111/cbdd.12236,calculated,calculated
,CCCCCCCCCCCCCCCCn1cc[n+](COCCCOC[n+]2ccn(CCCCCCCCCCCCCCCC)c2)c1.[Cl-].[Cl-],"InChI=1S/C43H82N4O2.2ClH/c1-3-5-7-9-11-13-15-17-19-21-23-25-27-29-32-44-34-36-46(40-44)42-48-38-31-39-49-43-47-37-35-45(41-47)33-30-28-26-24-22-20-18-16-14-12-10-8-6-4-2;;/h34-37,40-41H,3-33,38-39,42-43H2,1-2H3;2*1H/q+2;;/p-2",BHMVWQDQIRLYMF-UHFFFAOYSA-L,756.581483224,0.0002818382931264,3.55000000000007,32.8,0.00000214,0.84,39.2,4.07384555595647,0.0170118425654589,25,gemini cationic,10.1111/cbdd.12236,10.1111/cbdd.12236,10.1111/cbdd.12236,,10.1111/cbdd.12236,10.1111/cbdd.12236,10.1111/cbdd.12236,calculated,calculated
,CCCCCCCCCCCCCCCCn1cc[n+](COCCOC[n+]2ccn(CCCCCCCCCCCCCCCC)c2)c1.[Cl-].[Cl-],"InChI=1S/C42H80N4O2.2ClH/c1-3-5-7-9-11-13-15-17-19-21-23-25-27-29-31-43-33-35-45(39-43)41-47-37-38-48-42-46-36-34-44(40-46)32-30-28-26-24-22-20-18-16-14-12-10-8-6-4-2;;/h33-36,39-40H,3-32,37-38,41-42H2,1-2H3;2*1H/q+2;;/p-2",RMARADZZUOFQCN-UHFFFAOYSA-L,742.56583316,0.0003019951720402,3.52,33.9,0.00000217,0.82,38.1,4.0070063787542,0.018187761088824,25,gemini cationic,10.1111/cbdd.12236,10.1111/cbdd.12236,10.1111/cbdd.12236,,10.1111/cbdd.12236,10.1111/cbdd.12236,10.1111/cbdd.12236,calculated,calculated
2-[2-[2-[2-[2-[2-[2-(2-pentadecoxyethoxy)ethoxy]ethoxy]ethoxy]ethoxy]ethoxy]ethoxy]ethanol,CCCCCCCCCCCCCCCOCCOCCOCCOCCOCCOCCOCCOCCO,"InChI=1S/C31H64O9/c1-2-3-4-5-6-7-8-9-10-11-12-13-14-16-33-18-20-35-22-24-37-26-28-39-30-31-40-29-27-38-25-23-36-21-19-34-17-15-32/h32H,2-31H2,1H3",TXZCOTWFAODTIK-UHFFFAOYSA-N,580.455033628,0.0000035,5.45593195564972,34.4,0.00000367,0.45,37.6,6.29594042889316,0.00184377453860068,25,non-ionic,10.1021/acs.jpcb.1c05264,10.1016/j.ces.2022.118208,10.1002/9781118228920,10.1002/0471670561,10.1007/BF01419322,,10.1007/BF01419322,calculated,calculated
,CCCCCCCCCCCCCCCOOCCOCCOCCOCCOCCOCCOCCOCC,"InChI=1S/C31H64O9/c1-3-5-6-7-8-9-10-11-12-13-14-15-16-17-39-40-31-30-38-29-28-37-27-26-36-25-24-35-23-22-34-21-20-33-19-18-32-4-2/h3-31H2,1-2H3",RAGOEDPJVNKGJZ-UHFFFAOYSA-N,580.455033628,0.000003499,5.45605605751709,34.6,,,37.4,,,25,non-ionic,10.1021/ie4016232,10.1081/DIS-200054572,,,,,,,
sodium-pentadecyl-sulfate,CCCCCCCCCCCCCCCOS(=O)(=O)[O-].[Na+],"InChI=1S/C15H32O4S.Na/c1-2-3-4-5-6-7-8-9-10-11-12-13-14-15-19-20(16,17)18;/h2-15H2,1H3,(H,16,17,18);/q;+1/p-1",SMECTXYFLVLAJE-UHFFFAOYSA-M,330.184074752,0.001199,2.92118081690115,,,,,,,25,anionic,10.1021/ci600462d,,10.1006/jcis.1996.4680,,,,,,
sodium-pentadecane-1-sulfonat,CCCCCCCCCCCCCCCS(=O)(=O)[O-].[Na+],"InChI=1S/C15H32O3S.Na/c1-2-3-4-5-6-7-8-9-10-11-12-13-14-15-19(16,17)18;/h2-15H2,1H3,(H,16,17,18);/q;+1/p-1",PLQISZLZPSPBDP-UHFFFAOYSA-M,314.189160132,0.0007261,3.1390035632428,,,,,,,25,anionic,10.1021/ci600462d,,,,,,,,
,CCCCCCCCCCCCCCC[N+](C)(C)CCCCNC[N+](C)(C)CCCCCCCCCCCCCCC.[Br-].[Br-],"InChI=1S/C39H85N3.2BrH/c1-7-9-11-13-15-17-19-21-23-25-27-29-32-36-41(3,4)37-34-31-35-40-39-42(5,6)38-33-30-28-26-24-22-20-18-16-14-12-10-8-2;;/h40H,7-39H2,1-6H3;2*1H/q+2;;/p-2",BZUHHVVMUKQWFJ-UHFFFAOYSA-L,753.51102392,4.30031233630544E-05,4.3665,,,,,,,25,gemini cationic,10.1016/j.chemosphere.2011.05.031,,,,,,,,
"N,N'-bis(pentadecyldimethyl)-3-N-methyl-1,5-pentanediammoniumdibromide",CCCCCCCCCCCCCCC[N+](C)(C)CCN(C)CC[N+](C)(C)CCCCCCCCCCCCCCC.[Br-].[Br-],"InChI=1S/C39H85N3.2BrH/c1-8-10-12-14-16-18-20-22-24-26-28-30-32-36-41(4,5)38-34-40(3)35-39-42(6,7)37-33-31-29-27-25-23-21-19-17-15-13-11-9-2;;/h8-39H2,1-7H3;2*1H/q+2;;/p-2",XNUSGPRXBYZVLV-UHFFFAOYSA-L,753.51102392,0.000042,4.3767507096021,40.1,0.00000147,1.13,31.9,4.84940699248141,0.00783302121269844,25,gemini cationic,10.1016/0021-9797(86)90417-0,10.1016/j.ces.2022.118208,,10.1016/0021-9797(86)90417-0,10.1016/0021-9797(86)90417-0,,,calculated,calculated
,CCCCCCCCCCCCCCC[N+]1(CCC#CCC[N+]2(CCCCCCCCCCCCCCC)CCCC2)CCCC1.[Br-].[Br-],"InChI=1S/C44H86N2.2BrH/c1-3-5-7-9-11-13-15-17-19-21-23-25-29-37-45(41-33-34-42-45)39-31-27-28-32-40-46(43-35-36-44-46)38-30-26-24-22-20-18-16-14-12-10-8-6-4-2;;/h3-26,29-44H2,1-2H3;2*1H/q+2;;/p-2",JRLPBUIVRCNTOL-UHFFFAOYSA-L,800.515774952,0.0001299870237388,3.8861000000002,,,,,,,25,gemini cationic,10.1016/j.chemosphere.2011.05.031,,,,,,,,
1-pentadecylpyridin-1-ium-bromide,CCCCCCCCCCCCCCC[n+]1ccccc1.[Br-],"InChI=1S/C20H36N.BrH/c1-2-3-4-5-6-7-8-9-10-11-12-13-15-18-21-19-16-14-17-20-21;/h14,16-17,19-20H,2-13,15,18H2,1H3;1H/q+1;/p-1",CTKQHXPMKKCCTJ-UHFFFAOYSA-M,369.203112252,0.0013,2.88605664769316,,,,,,,25,cationic,10.1021/acs.jpcb.1c05264,,10.1002/9781118228920,,,,,,
4-pentadecylpyridin-1-ium-bromide,CCCCCCCCCCCCCCCc1cc[nH+]cc1.[Br-],"InChI=1S/C20H35N.BrH/c1-2-3-4-5-6-7-8-9-10-11-12-13-14-15-20-16-18-21-19-17-20;/h16-19H,2-15H2,1H3;1H",OKPSRCJDRIPXJV-UHFFFAOYSA-N,369.203112252,0.0013,2.88605664769316,,,,,,,25,cationic,10.1002/9781118228920.ch3,,,,,,,,
,CCCCCCCCCCCCCCN(C)C(=O)C(O)C(O)C(O)C(O)CO,"InChI=1S/C21H43NO6/c1-3-4-5-6-7-8-9-10-11-12-13-14-15-22(2)21(28)20(27)19(26)18(25)17(24)16-23/h17-20,23-27H,3-16H2,1-2H3",OGUODBFRSCMWFE-UHFFFAOYSA-N,405.309038096,,,34,,,,,,,non-ionic,,10.1016/j.ces.2022.118208,,10.1002/0471670561,,,,,
,CCCCCCCCCCCCCCN(C)C(=O)COCOCOCO,"InChI=1S/C20H41NO5/c1-3-4-5-6-7-8-9-10-11-12-13-14-15-21(2)20(23)16-24-18-26-19-25-17-22/h22H,3-19H2,1-2H3",SCGVDAGTKKHCNB-UHFFFAOYSA-N,375.298473412,0.0000236,4.62708799702989,34.2,0.00000397,0.418271805333463,37.8,5.55,0.00000278,20,non-ionic,10.1002/9781118228920.ch3,10.1002/9781118228920.ch5,,10.1006/jcis.2001.7704,10.1002/9781118228920.ch5,10.1002/9781118228920.ch5,calculated,10.1006/jcis.2001.7704,