IUPAC_name,SMILES,InChI,InChIKey,Molecular_Weight,CMC,pCMC,AW_ST_CMC,Gamma_max,Area_min,Pi_CMC,PC20,C20,Temp_Celsius,Surfactant_Type,Ref_CMC,Ref_AW_ST_CMC,SubRef_CMC,SubRef_AW_ST_CMC,Ref_Gamma_max,Ref_Pi_CMC,Ref_Area_min,Ref_PC20,Ref_C20
,CCCCCCCCCCCCN(C)C(=O)COCOCOCO,"InChI=1S/C18H37NO5/c1-3-4-5-6-7-8-9-10-11-12-13-19(2)18(21)14-22-16-24-17-23-15-20/h20H,3-17H2,1-2H3",GJUGCJJEXNJEIE-UHFFFAOYSA-N,347.267173284,0.000146,3.83564714421556,34.4,0.00000399,0.416175204805475,37.6,4.78,0.0000166,20,non-ionic,10.1002/9781118228920.ch3,10.1002/9781118228920.ch5,,10.1006/jcis.2001.7704,10.1002/9781118228920.ch5,10.1002/9781118228920.ch5,calculated,10.1006/jcis.2001.7704,
N-dodecyl-N-methylgluconamide,CCCCCCCCCCCCN(C)C(=O)[C@H](O)[C@@H](O)[C@H](O)[C@H](O)CO,"InChI=1S/C19H39NO6/c1-3-4-5-6-7-8-9-10-11-12-13-20(2)19(26)18(25)17(24)16(23)15(22)14-21/h15-18,21-25H,3-14H2,1-2H3/t15-,16-,17+,18-/m1/s1",WRBSFINFCKCUDF-ZJPYXAASSA-N,377.277737968,0.00014,3.85387196432176,35.2,0.0000044,0.42,37.6,4,0.0001,20,sugar-based non-ionic,10.1021/acs.iecr.6b02890,10.1016/j.jcis.2018.01.051,10.1016/j.molliq.2018.01.037,,10.1006/jcis.2001.7704,10.1006/jcis.2001.7704,10.1006/jcis.2001.7704,10.1006/jcis.2001.7704,
N-dodecyl-N-methyllactobionamide,CCCCCCCCCCCCN(C)C(=O)[C@H](O)[C@@H](O)[C@H](O[C@@H]1O[C@H](C)[C@H](O)[C@H](O)[C@H]1O)[C@H](O)CO,"InChI=1S/C25H49NO10/c1-4-5-6-7-8-9-10-11-12-13-14-26(3)24(34)21(32)20(31)23(17(28)15-27)36-25-22(33)19(30)18(29)16(2)35-25/h16-23,25,27-33H,4-15H2,1-3H3/t16-,17-,18+,19+,20-,21-,22-,23-,25+/m1/s1",LHLMQWHXSJLVAC-NXFMKOSNSA-N,523.335646768,0.00025,3.60205999132796,36,0.00000398,0.42,36.8,4.5,0.0000316,20,sugar-based non-ionic,10.1021/acs.iecr.6b02890,10.1016/j.jcis.2018.01.051,10.1016/j.molliq.2018.01.037,,10.1006/jcis.2001.7704,10.1006/jcis.2001.7704,10.1006/jcis.2001.7704,10.1006/jcis.2001.7704,
,CCCCCCCCCCCCN(C)C.Cl,"InChI=1S/C14H31N.ClH/c1-4-5-6-7-8-9-10-11-12-13-14-15(2)3;/h4-14H2,1-3H3;1H",PGQAXGHQYGXVDC-UHFFFAOYSA-N,249.222327704,,,38.5,,,,,,,non-ionic,,10.1016/j.ces.2022.118208,,10.1006/jcis.1994.1186,,,,,
"N,N-bistetradecyl-N,N-bis[(3-gluconylamide)propyl]ethylenediamines",CCCCCCCCCCCCN(CCCNC(=O)C(O)C(O)C(O)C(O)C(O)CO)CCN(CCCCCCCCCCCC)CCCNC(=O)C(O)C(O)C(O)C(O)C(O)CO,"InChI=1S/C46H94N4O14/c1-3-5-7-9-11-13-15-17-19-21-27-49(29-23-25-47-45(63)43(61)41(59)39(57)37(55)35(53)33-51)31-32-50(28-22-20-18-16-14-12-10-8-6-4-2)30-24-26-48-46(64)44(62)42(60)40(58)38(56)36(54)34-52/h35-44,51-62H,3-34H2,1-2H3,(H,47,63)(H,48,64)",VGKHUDLBLARLRD-UHFFFAOYSA-N,926.676653688,0.0000052,5.2839966563652,33,0.00000251,0.66,39,6.6,0.000000251,25,non-ionic,10.1016/j.jcis.2003.09.020,10.1016/j.ces.2022.118208,,10.1016/j.jcis.2003.09.020,10.1016/j.jcis.2003.09.020,,10.1016/j.jcis.2003.09.020,10.1016/j.jcis.2003.09.020,
"N,N-bisdodecyl-N,N-bis[(3-gluconylamide)propyl]ethylenediamines",CCCCCCCCCCCCN(CCCNC(=O)C(O)C(O)C(O)C(O)CO)CCN(CCCCCCCCCCCC)CCCNC(=O)C(O)C(O)C(O)C(O)CO,"InChI=1S/C44H90N4O12/c1-3-5-7-9-11-13-15-17-19-21-27-47(29-23-25-45-43(59)41(57)39(55)37(53)35(51)33-49)31-32-48(28-22-20-18-16-14-12-10-8-6-4-2)30-24-26-46-44(60)42(58)40(56)38(54)36(52)34-50/h35-42,49-58H,3-34H2,1-2H3,(H,45,59)(H,46,60)",NMJHEAHCBBAOTR-UHFFFAOYSA-N,866.65552432,0.0000038,5.42021640338319,32,0.00000252,0.66,40,6.9,0.000000126,25,non-ionic,10.1016/j.jcis.2003.09.020,10.1016/j.ces.2022.118208,,10.1016/j.jcis.2003.09.020,10.1016/j.jcis.2003.09.020,,10.1016/j.jcis.2003.09.020,10.1016/j.jcis.2003.09.020,
,CCCCCCCCCCCCN(CCC[N+](C)(C)CCCCCCCCCCCC)C(=[N+])N(C)C.[Cl-].[Cl-],"InChI=1S/C32H68N4.2ClH/c1-7-9-11-13-15-17-19-21-23-25-28-35(32(33)34(3)4)29-27-31-36(5,6)30-26-24-22-20-18-16-14-12-10-8-2;;/h7-31H2,1-6H3;2*1H/q+2;;/p-2",PGFDSTDTFYXIKP-UHFFFAOYSA-L,578.482103536,,,29.4,,,,,,,gemini cationic,,10.1016/j.ces.2022.118208,,10.1016/j.colsurfa.2012.11.004,,,,,
4-diethylaminobenzaldehyde-1-dodecylamine,CCCCCCCCCCCCN=Cc1ccc([N+](C)(CC)CC)cc1.[I-],"InChI=1S/C24H43N2.HI/c1-5-8-9-10-11-12-13-14-15-16-21-25-22-23-17-19-24(20-18-23)26(4,6-2)7-3;/h17-20,22H,5-16,21H2,1-4H3;1H/q+1;/p-1",RGVGTBCHEFTAJJ-UHFFFAOYSA-M,486.247097376,0.00263,2.58004425151024,44.8,0.00000708,0.24,27,2.66910909444563,0.069313949992876,25,cationic,10.1007/s11743-009-1156-0,10.1016/j.ces.2022.118208,,10.1201/9780203911518,10.1007/s11743-009-1156-0,10.1007/s11743-009-1156-0,10.1007/s11743-009-1156-0,calculated,calculated
Dodecyl-D-maltonamide,CCCCCCCCCCCCNC(=O)C(O)C(O)C(OC1OC(CO)C(O)C(O)C1O)C(O)CO,"InChI=1S/C24H47NO11/c1-2-3-4-5-6-7-8-9-10-11-12-25-23(34)20(32)19(31)22(15(28)13-26)36-24-21(33)18(30)17(29)16(14-27)35-24/h15-22,24,26-33H,2-14H2,1H3,(H,25,34)",LFNJILUYRQKLJY-UHFFFAOYSA-N,525.314911324,0.00031,3.50863830616573,33.6,0.00000383,0.43,38.4,4.4,0.0000398,25,sugar-based non-ionic,10.1021/acs.iecr.6b02890,10.1016/j.jcis.2018.01.051,10.1016/j.molliq.2018.01.037,,10.1006/jcis.1996.0054,10.1006/jcis.1996.0054,10.1006/jcis.1996.0054,10.1006/jcis.1996.0054,
"N,N-dimethyl-N,N-bis[2-(N-dodecylcarbamoyl)ethyl]ammoniumbromides",CCCCCCCCCCCCNC(=O)CC[N+](C)(C)CCC(=O)NCCCCCCCCCCCC.[Br-],"InChI=1S/C32H65N3O2.BrH/c1-5-7-9-11-13-15-17-19-21-23-27-33-31(36)25-29-35(3,4)30-26-32(37)34-28-24-22-20-18-16-14-12-10-8-6-2;/h5-30H2,1-4H3,(H-,33,34,36,37);1H",FKPTWRIZZYQUSU-UHFFFAOYSA-N,603.433840452,0.00008,4.09691001300806,27,0.00000377,0.44,45,4.67768208785196,0.0093005467721025,25,cationic,10.1016/j.colsurfa.2015.01.050,10.1016/j.ces.2022.118208,,10.1016/j.colsurfa.2015.01.050,,,10.1016/j.colsurfa.2015.01.050,calculated,calculated
,CCCCCCCCCCCCNC(=O)C[N+](C)(C)CCCCCCCCCCCC[N+](C)(C)CC(=O)NCCCCCCCCCCCC.[Cl-].[Cl-],"InChI=1S/C44H90N4O2.2ClH/c1-7-9-11-13-15-17-21-25-29-33-37-45-43(49)41-47(3,4)39-35-31-27-23-19-20-24-28-32-36-40-48(5,6)42-44(50)46-38-34-30-26-22-18-16-14-12-10-8-2;;/h7-42H2,1-6H3;2*1H",BHTUHJCYQPAVIF-UHFFFAOYSA-N,778.659733544,0.00016,3.79588001734408,,,,,,,25,gemini cationic,10.1063/5.0051623,,10.1002/9781119075691.ch43,,,,,,
,CCCCCCCCCCCCNC(=O)C[N+](C)(C)CCCCCC[N+](C)(C)CC(=O)NCCCCCCCCCCCC.[Cl-].[Cl-],"InChI=1S/C38H78N4O2.2ClH/c1-7-9-11-13-15-17-19-21-23-27-31-39-37(43)35-41(3,4)33-29-25-26-30-34-42(5,6)36-38(44)40-32-28-24-22-20-18-16-14-12-10-8-2;;/h7-36H2,1-6H3;2*1H",HZALFXDEHYBAAM-UHFFFAOYSA-N,694.56583316,0.0003396,3.46903231842809,,,,,,,25,gemini cationic,10.1063/5.0051623,,10.1002/9781119075691.ch43,,,,,,
"N-dodecylcaramoylmethyl-N-[2-(2-phenoxyacetamido)-ethyl]-N,Ndimethylammoniumchloride",CCCCCCCCCCCCNC(=O)C[N+](C)(C)CCNC(=O)COc1ccccc1.[Cl-],"InChI=1S/C26H45N3O3.ClH/c1-4-5-6-7-8-9-10-11-12-16-19-27-25(30)22-29(2,3)21-20-28-26(31)23-32-24-17-14-13-15-18-24;/h13-15,17-18H,4-12,16,19-23H2,1-3H3,(H-,27,28,30,31);1H",NMEYMSHQMANRKQ-UHFFFAOYSA-N,483.322770012,0.000815,3.08884239126002,35.8,0.00000192,0.86,36.2,3.9,0.000126,25,cationic,10.1039/C4RA14645J,10.1016/j.ces.2022.118208,,10.1039/C4RA14645J,10.1039/C4RA14645J,10.1039/C4RA14645J,10.1039/C4RA14645J,,10.1039/C4RA14645J
,CCCCCCCCCCCCNCC(=O)NCOCC(CO)OCC(O)COCCCCCCCCCCCCNCC(=O)NCOCC(CO)OCC(O)COCC,"InChI=1S/C44H90N4O12/c1-3-5-6-7-8-9-12-15-18-21-24-45-28-44(54)48-38-58-36-42(30-50)60-34-40(52)32-56-26-23-20-17-14-11-10-13-16-19-22-25-46-27-43(53)47-37-57-35-41(29-49)59-33-39(51)31-55-4-2/h39-42,45-46,49-52H,3-38H2,1-2H3,(H,47,53)(H,48,54)",SDEGAENYKZNCDU-UHFFFAOYSA-N,866.65552432,0.000003802,5.41998788747058,,,,,,,25,non-ionic,10.1021/ie4016232,,,,,,,,
,CCCCCCCCCCCCNCC(=O)NCOCC(O)C(O)C(O)COCCCCCCCCCCCCNCC(=O)NCOCC(O)C(O)C(O)COCC,"InChI=1S/C42H86N4O12/c1-3-5-6-7-8-9-12-15-18-21-24-43-28-40(52)46-34-58-32-38(50)42(54)36(48)30-56-26-23-20-17-14-11-10-13-16-19-22-25-44-27-39(51)45-33-57-31-37(49)41(53)35(47)29-55-4-2/h35-38,41-44,47-50,53-54H,3-34H2,1-2H3,(H,45,51)(H,46,52)",IMYUFJQWRKCEQU-UHFFFAOYSA-N,838.624224192,0.0000052,5.2839966563652,,,,,,,25,non-ionic,10.1021/ie4016232,,,,,,,,
,CCCCCCCCCCCCOC(=O)C(C)[N+](C)(C)CC[N+](C)(C)C(C)C(=O)OCCCCCCCCCCCC.[Br-].[Br-],"InChI=1S/C36H74N2O4.2BrH/c1-9-11-13-15-17-19-21-23-25-27-31-41-35(39)33(3)37(5,6)29-30-38(7,8)34(4)36(40)42-32-28-26-24-22-20-18-16-14-12-10-2;;/h33-34H,9-32H2,1-8H3;2*1H/q+2;;/p-2",MDLUAVVCMGEWSL-UHFFFAOYSA-L,756.401533048,,,32,,,,,,,gemini cationic,,10.1016/j.ces.2022.118208,,10.1246/cl.2012.1096,,,,,
"N,N-dimethyl-N,N-bis[2-dodecaneoxycarbonyl)ethyl]ammoniumbromides",CCCCCCCCCCCCOC(=O)CC[N+](C)(C)CCC(=O)OCCCCCCCCCCCC.[Br-],"InChI=1S/C32H64NO4.BrH/c1-5-7-9-11-13-15-17-19-21-23-29-36-31(34)25-27-33(3,4)28-26-32(35)37-30-24-22-20-18-16-14-12-10-8-6-2;/h5-30H2,1-4H3;1H/q+1;/p-1",QELHTFUGAFSQKM-UHFFFAOYSA-M,605.401871628,0.00015,3.82390874094432,45,0.00000339,0.49,27,4.00475328436769,0.0182287860304143,25,cationic,10.1016/j.colsurfa.2015.01.050,10.1016/j.ces.2022.118208,,10.1016/j.colsurfa.2015.01.050,,,10.1016/j.colsurfa.2015.01.050,calculated,calculated
,CCCCCCCCCCCCOC(=O)C[N+](C)(C)C(=O)NCCCCCCNC(=O)[N+](C)(C)CC(=O)OCCCCCCCCCCCC.[Cl-].[Cl-],"InChI=1S/C40H78N4O6.2ClH/c1-7-9-11-13-15-17-19-21-25-29-33-49-37(45)35-43(3,4)39(47)41-31-27-23-24-28-32-42-40(48)44(5,6)36-38(46)50-34-30-26-22-20-18-16-14-12-10-8-2;;/h7-36H2,1-6H3;2*1H",ZSZWMCGKDDTRRT-UHFFFAOYSA-N,782.54549164,0.00025,3.60205999132796,,,,,,,25,gemini cationic,10.1063/5.0051623,,10.1002/9781119075691.ch43,,,,,,
(2-dodecoxy-2-oxoethyl)-[6-[(2-dodecoxy-2-oxoethyl)-dimethylazaniumyl]hexyl]-dimethylazanium-dichloride,CCCCCCCCCCCCOC(=O)C[N+](C)(C)CCCCCC[N+](C)(C)CC(=O)OCCCCCCCCCCCC.[Cl-].[Cl-],"InChI=1S/C38H78N2O4.2ClH/c1-7-9-11-13-15-17-19-21-25-29-33-43-37(41)35-39(3,4)31-27-23-24-28-32-40(5,6)36-38(42)44-34-30-26-22-20-18-16-14-12-10-8-2;;/h7-36H2,1-6H3;2*1H/q+2;;/p-2",XINQFOMFQFGGCQ-UHFFFAOYSA-L,696.533864336,0.0003199,3.49498575991589,,,,,,,25,gemini cationic,10.1063/5.0051623,,10.1002/9781119075691.ch43,,,,,,
"2-(dodecyloxy)-N-(2-(2-hydroxyethoxy)ethyl)-N,N-dimethyl-2-oxoethanaminiumchloride",CCCCCCCCCCCCOC(=O)C[N+](C)(C)CCOCCO.[Cl-],"InChI=1S/C20H42NO4.ClH/c1-4-5-6-7-8-9-10-11-12-13-16-25-20(23)19-21(2,3)14-17-24-18-15-22;/h22H,4-19H2,1-3H3;1H/q+1;/p-1",JSIXWFQZOZJWKM-UHFFFAOYSA-M,395.280236504,0.000973,3.01188715973165,30,0.00000112,1.48,42,4.83,0.0000149,20,cationic,10.1016/j.molliq.2017.12.105,10.1016/j.ces.2022.118208,,10.1016/j.molliq.2017.12.105,10.1016/j.molliq.2017.12.105,10.1016/j.molliq.2017.12.105,10.1016/j.molliq.2017.12.105,10.1016/j.molliq.2017.12.105,
,CCCCCCCCCCCCOC(=O)C[N+](CC)(CC)c1ccc(C=NCCN=Cc2ccc([N+](CC)(CC)CC(=O)OCCCCCCCCCCCC)cc2)cc1.[Cl-].[Cl-],"InChI=1S/C52H88N4O4.2ClH/c1-7-13-15-17-19-21-23-25-27-29-41-59-51(57)45-55(9-3,10-4)49-35-31-47(32-36-49)43-53-39-40-54-44-48-33-37-50(38-34-48)56(11-5,12-6)46-52(58)60-42-30-28-26-24-22-20-18-16-14-8-2;;/h31-38,43-44H,7-30,39-42,45-46H2,1-6H3;2*1H/q+2;;/p-2",HPCFOLFPJREFNQ-UHFFFAOYSA-L,902.618262656,0.00245,2.61083391563547,33.6,0.00000118,1.408,38.2,3.93930215964639,0.000115,25,gemini cationic,10.1080/01932690903269784,10.1016/j.ces.2022.118208,,10.1080/01932690903269784,10.1080/01932690903269784,10.1080/01932690903269784,10.1080/01932690903269784,,10.1080/01932690903269784
"2-[(4-methoxybenzylidene)amino]-3-(2-oxo-2-dodecyloxyethyl)-1,3-benzothiazol-3-iumBromide",CCCCCCCCCCCCOC(=O)C[n+]1c(N=Cc2ccc(OC)cc2)sc2ccccc21.[Br-],"InChI=1S/C29H39N2O3S.BrH/c1-3-4-5-6-7-8-9-10-11-14-21-34-28(32)23-31-26-15-12-13-16-27(26)35-29(31)30-22-24-17-19-25(33-2)20-18-24;/h12-13,15-20,22H,3-11,14,21,23H2,1-2H3;1H/q+1;/p-1",NWOHQMPGMQFDOJ-UHFFFAOYSA-M,574.186476208,0.124,0.906578314837765,45.2,,,26.8,,,25,cationic,10.1080/01932691003756902,10.1016/j.ces.2022.118208,,10.1080/01932691003756902,,,,,
"2-(benzylideneamino)-3-(2-oxo-2-dodecyloxyethyl)-1,3-benzothiazol-3-iumbromide",CCCCCCCCCCCCOC(=O)C[n+]1c(N=Cc2ccccc2)sc2ccccc21.[Br-],"InChI=1S/C28H37N2O2S.BrH/c1-2-3-4-5-6-7-8-9-10-16-21-32-27(31)23-30-25-19-14-15-20-26(25)33-28(30)29-22-24-17-12-11-13-18-24;/h11-15,17-20,22H,2-10,16,21,23H2,1H3;1H/q+1;/p-1",FLTCCTGKOHCNRM-UHFFFAOYSA-M,544.175911524,0.134,0.872895201635192,44.4,,,27.6,,,25,cationic,10.1080/01932691003756902,10.1016/j.ces.2022.118208,,10.1080/01932691003756902,,,,,
,CCCCCCCCCCCCOC(=O)C[n+]1ccc(CCCc2cc[n+](CC(=O)OCCCCCCCCCCCC)cc2)cc1.[Br-].[Br-],"InChI=1S/C41H68N2O4.2BrH/c1-3-5-7-9-11-13-15-17-19-21-34-46-40(44)36-42-30-26-38(27-31-42)24-23-25-39-28-32-43(33-29-39)37-41(45)47-35-22-20-18-16-14-12-10-8-6-4-2;;/h26-33H,3-25,34-37H2,1-2H3;2*1H/q+2;;/p-2",HNFZSLHYFFVGDD-UHFFFAOYSA-L,810.354582856,0.00003597,4.44405956218149,,,,,,,25,gemini cationic,10.1063/5.0051623,,,,,,,,
,CCCCCCCCCCCCOC(=O)C[n+]1cccc(N=Cc2ccc(O)c(OC)c2)c1.[Br-],"InChI=1S/C27H38N2O4.BrH/c1-3-4-5-6-7-8-9-10-11-12-18-33-27(31)22-29-17-13-14-24(21-29)28-20-23-15-16-25(30)26(19-23)32-2;/h13-17,19-21H,3-12,18,22H2,1-2H3;1H",YZCWCWDTLXBXBT-UHFFFAOYSA-N,534.209319828,0.00151,2.82102305270683,37.8,0.00000118,1.408,34,4.58502665202918,0.000026,25,cationic,10.1016/j.colsurfa.2011.09.032,10.1016/j.ces.2022.118208,,10.1016/j.colsurfa.2011.09.032,10.1016/j.colsurfa.2011.09.032,10.1016/j.colsurfa.2011.09.032,10.1016/j.colsurfa.2011.09.032,,10.1016/j.colsurfa.2011.09.032
7-Pipridinomethyl-8-hydroxy-N-methylcarboxydodecyl-quinoliniumbromide,CCCCCCCCCCCCOC(=O)C[n+]1cccc2ccc(CN3CCCCC3)c(O)c21.[Br-],"InChI=1S/C29H44N2O3.BrH/c1-2-3-4-5-6-7-8-9-10-14-22-34-27(32)24-31-21-15-16-25-17-18-26(29(33)28(25)31)23-30-19-12-11-13-20-30;/h15-18,21H,2-14,19-20,22-24H2,1H3;1H",HERYYJULRVDTOT-UHFFFAOYSA-N,548.2613554,0.001,3,43,0.00000525,3.16,29,5.53,0.00000295,25,cationic,10.1016/j.bmc.2005.07.031,10.1016/j.ces.2022.118208,,10.1016/j.bmc.2005.07.031,10.1016/j.bmc.2005.07.031,10.1016/j.bmc.2005.07.031,10.1016/j.bmc.2005.07.031,10.1016/j.bmc.2005.07.031,
7-Morphilinomethyl-8-hydroxy-N-methylcarboxydodecyl-quinoliniumbromide,CCCCCCCCCCCCOC(=O)C[n+]1cccc2ccc(CN3CCOCC3)c(O)c21.[Br-],"InChI=1S/C28H42N2O4.BrH/c1-2-3-4-5-6-7-8-9-10-11-19-34-26(31)23-30-16-12-13-24-14-15-25(28(32)27(24)30)22-29-17-20-33-21-18-29;/h12-16H,2-11,17-23H2,1H3;1H",LDFNFIQTACIRTB-UHFFFAOYSA-N,550.240619956,0.00025,3.60205999132796,43.5,0.00000423,3.93,28.5,4.45,0.0000355,25,cationic,10.1016/j.bmc.2005.07.031,10.1016/j.ces.2022.118208,,10.1016/j.bmc.2005.07.031,10.1016/j.bmc.2005.07.031,10.1016/j.bmc.2005.07.031,10.1016/j.bmc.2005.07.031,10.1016/j.bmc.2005.07.031,
,CCCCCCCCCCCCOC(=O)C[n+]1oc(C)cc1N=Cc1ccccc1.[Br-],"InChI=1S/C25H37N2O3.BrH/c1-3-4-5-6-7-8-9-10-11-15-18-29-25(28)21-27-24(19-22(2)30-27)26-20-23-16-13-12-14-17-23;/h12-14,16-17,19-20H,3-11,15,18,21H2,1-2H3;1H/q+1;/p-1",DAVVMSPDAJQEDP-UHFFFAOYSA-M,492.198755144,,,42,,,,,,,cationic,,10.1016/j.ces.2022.118208,,10.1016/j.corsci.2011.06.029,,,,,
"2-(dodecyloxy)-2-oxoethyl-N,N,N-triethylammoniumiodide",CCCCCCCCCCCCOC(=O)[N+](CC)(CC)CC.[I-],"InChI=1S/C19H40NO2.HI/c1-5-9-10-11-12-13-14-15-16-17-18-22-19(21)20(6-2,7-3)8-4;/h5-18H2,1-4H3;1H/q+1;/p-1",AYHWNLZKZMDDDQ-UHFFFAOYSA-M,441.21037752,0.0063,2.20065945054642,25,0.0000013,1.28,46.78,2.3,0.005,25,cationic,10.3139/113.110437,10.1016/j.ces.2022.118208,,10.3139/113.110437,10.3139/113.110437,10.3139/113.110437,10.3139/113.110437,10.3139/113.110437,10.3139/113.110437
,CCCCCCCCCCCCOC(O)C(O)C(O)C(O)C(O)C(O)C(O)C(O)C(O)CO,"InChI=1S/C22H46O11/c1-2-3-4-5-6-7-8-9-10-11-12-33-22(32)21(31)20(30)19(29)18(28)17(27)16(26)15(25)14(24)13-23/h14-32H,2-13H2,1H3",SZXLZFJUNMVGGN-UHFFFAOYSA-N,486.304012292,0.000182,3.73992861201493,,,,,,,25,non-ionic,10.1021/ie4016232,,,,,,,,
Dodecyl-β-D-maltoside,CCCCCCCCCCCCOC1CC(O)C(OC2OC(CO)C(O)C(O)C2O)C(CO)O1,"InChI=1S/C24H46O10/c1-2-3-4-5-6-7-8-9-10-11-12-31-19-13-16(27)23(18(15-26)32-19)34-24-22(30)21(29)20(28)17(14-25)33-24/h16-30H,2-15H2,1H3",PIRCZUWXWQNLIP-UHFFFAOYSA-N,494.309097672,0.00017,3.76955107862173,35.3,0.00000332,0.5,35.8,4.65958688106385,0.00947037398450562,22,sugar-based non-ionic,10.1021/acs.iecr.6b02890,10.1016/j.jcis.2018.01.051,10.1016/j.molliq.2018.01.037,,10.1021/la980519x,10.1021/la980519x,10.1021/la980519x,calculated,calculated
"(2R,3R,4S,5S,6R)-2-dodecoxy-6-(hydroxymethyl)oxane-3,4,5-triol",CCCCCCCCCCCCOC1OC(CO)C(O)C(O)C1O,"InChI=1S/C18H36O6/c1-2-3-4-5-6-7-8-9-10-11-12-23-18-17(22)16(21)15(20)14(13-19)24-18/h14-22H,2-13H2,1H3",PYIDGJJWBIBVIA-UHFFFAOYSA-N,348.251188872,0.00019,3.72124639904717,,,,,,,25,sugar-based non-ionic,10.1021/acs.jpcb.1c05264,,10.1002/9781118228920,,,,,,
,CCCCCCCCCCCCOCC(C)OCC(C)OCC(C)OCC(C)OCC(C)OCC(C)OCC(=O)[O-].[Na+],"InChI=1S/C32H64O9.Na/c1-8-9-10-11-12-13-14-15-16-17-18-35-19-26(2)36-20-27(3)37-21-28(4)38-22-29(5)39-23-30(6)40-24-31(7)41-25-32(33)34;/h26-31H,8-25H2,1-7H3,(H,33,34);/q;+1/p-1",QGDCYTYERVUOKD-UHFFFAOYSA-M,614.436977876,0.000287,3.54211810326601,38.2,,,33.77,,,25,anionic,10.1007/s11743-005-346-2,10.1007/s11743-005-346-2,,,,calculated,,,
,CCCCCCCCCCCCOCC(C)OCC(C)OCC(C)OCC(C)OCC(C)OCC(C)OCC(C)OCC(C)OCC(C)OCC(C)OCC(=O)[O-].[Na+],"InChI=1S/C44H88O13.Na/c1-12-13-14-15-16-17-18-19-20-21-22-47-23-34(2)48-24-35(3)49-25-36(4)50-26-37(5)51-27-38(6)52-28-39(7)53-29-40(8)54-30-41(9)55-31-42(10)56-32-43(11)57-33-44(45)46;/h34-43H,12-33H2,1-11H3,(H,45,46);/q;+1/p-1",NVIBQDWJJZTEQB-UHFFFAOYSA-M,846.604437124,0.000102,3.99139982823808,38.1,,,33.87,,,25,anionic,10.1007/s11743-005-346-2,10.1007/s11743-005-346-2,,,,calculated,,,
,CCCCCCCCCCCCOCC(C)OCC(C)OCC(C)OCC(C)OCC(C)OCC(C)OCC(C)OCC(C)OCC(C)OCC(C)OCC(C)OCC(C)OCC(C)OCC(C)OCC(=O)[O-].[Na+],"InChI=1S/C56H112O17.Na/c1-16-17-18-19-20-21-22-23-24-25-26-59-27-42(2)60-28-43(3)61-29-44(4)62-30-45(5)63-31-46(6)64-32-47(7)65-33-48(8)66-34-49(9)67-35-50(10)68-36-51(11)69-37-52(12)70-38-53(13)71-39-54(14)72-40-55(15)73-41-56(57)58;/h42-55H,16-41H2,1-15H3,(H,57,58);/q;+1/p-1",HKCPDBATYVRQKA-UHFFFAOYSA-M,1078.771896372,0.000036,4.44369749923271,38.2,,,33.77,,,25,anionic,10.1007/s11743-005-346-2,10.1007/s11743-005-346-2,,,,calculated,,,
,CCCCCCCCCCCCOCC(C)OCC(C)OCC(C)OCC(C)OCC(C)OCC(C)OCC(C)OCC(C)OCC(C)OCC(C)OCC(C)OCC(C)OCC(C)OCC(C)OS(=O)(=O)[O-].[Na+],"InChI=1S/C54H110O18S.Na/c1-16-17-18-19-20-21-22-23-24-25-26-58-27-41(2)59-28-42(3)60-29-43(4)61-30-44(5)62-31-45(6)63-32-46(7)64-33-47(8)65-34-48(9)66-35-49(10)67-36-50(11)68-37-51(12)69-38-52(13)70-39-53(14)71-40-54(15)72-73(55,56)57;/h41-54H,16-40H2,1-15H3,(H,55,56,57);/q;+1/p-1",FATCPAPIJZSIMK-UHFFFAOYSA-M,1100.723231928,0.000013,4.88605664769316,38.3,,,33.67,,,25,anionic,10.1007/s11743-005-346-2,10.1007/s11743-005-346-2,,,,calculated,,,
,CCCCCCCCCCCCOCC(C)OCC(C)OCC(C)OCC(C)OCC(C)OCC(C)OCC(C)OCC(C)OCC(C)OCC(C)OS(=O)(=O)[O-].[Na+],"InChI=1S/C42H86O14S.Na/c1-12-13-14-15-16-17-18-19-20-21-22-46-23-33(2)47-24-34(3)48-25-35(4)49-26-36(5)50-27-37(6)51-28-38(7)52-29-39(8)53-30-40(9)54-31-41(10)55-32-42(11)56-57(43,44)45;/h33-42H,12-32H2,1-11H3,(H,43,44,45);/q;+1/p-1",LPSQFJLBYYNGBV-UHFFFAOYSA-M,868.55577268,0.000053,4.27572413039921,38.1,,,33.87,,,25,anionic,10.1007/s11743-005-346-2,10.1007/s11743-005-346-2,,,,calculated,,,
,CCCCCCCCCCCCOCC(C)OCC(C)OCC(C)OCC(C)OCC(C)OCC(C)OCCOCCOCC(=O)[O-].[Na+],"InChI=1S/C36H72O11.Na/c1-8-9-10-11-12-13-14-15-16-17-18-40-23-30(2)43-25-32(4)45-27-34(6)47-28-35(7)46-26-33(5)44-24-31(3)42-22-21-39-19-20-41-29-36(37)38;/h30-35H,8-29H2,1-7H3,(H,37,38);/q;+1/p-1",JHCNYQUEKUHHEA-UHFFFAOYSA-M,702.489407372,0.000395,3.40340290437354,39.9,,,32.07,,,25,anionic,10.1007/s11743-005-346-2,10.1007/s11743-005-346-2,,,,calculated,,,
,CCCCCCCCCCCCOCC(C)OCC(C)OCC(C)OCC(C)OCC(C)OCC(C)OCCOCCOS(=O)(=O)[O-].[Na+],"InChI=1S/C34H70O12S.Na/c1-8-9-10-11-12-13-14-15-16-17-18-39-23-29(2)41-25-31(4)43-27-33(6)45-28-34(7)44-26-32(5)42-24-30(3)40-21-19-38-20-22-46-47(35,36)37;/h29-34H,8-28H2,1-7H3,(H,35,36,37);/q;+1/p-1",BDQJRLDWIDZFGP-UHFFFAOYSA-M,724.440742928,0.00017,3.76955107862173,40.4,,,31.57,,,25,anionic,10.1007/s11743-005-346-2,10.1007/s11743-005-346-2,,,,calculated,,,
,CCCCCCCCCCCCOCC(C)OCC(C)OCC(C)OCC(C)OCC(C)OCC(C)OS(=O)(=O)[O-].[Na+],"InChI=1S/C30H62O10S.Na/c1-8-9-10-11-12-13-14-15-16-17-18-34-19-25(2)35-20-26(3)36-21-27(4)37-22-28(5)38-23-29(6)39-24-30(7)40-41(31,32)33;/h25-30H,8-24H2,1-7H3,(H,31,32,33);/q;+1/p-1",HHNCKDOVEMGLEB-UHFFFAOYSA-M,636.388313432,0.000148,3.82973828460504,38.7,,,33.27,,,25,anionic,10.1007/s11743-005-346-2,10.1007/s11743-005-346-2,,,,calculated,,,