IUPAC_name,SMILES,InChI,InChIKey,Molecular_Weight,CMC,pCMC,AW_ST_CMC,Gamma_max,Area_min,Pi_CMC,PC20,C20,Temp_Celsius,Surfactant_Type,Ref_CMC,Ref_AW_ST_CMC,SubRef_CMC,SubRef_AW_ST_CMC,Ref_Gamma_max,Ref_Pi_CMC,Ref_Area_min,Ref_PC20,Ref_C20
,CCCCCCCCCCCCCCCC(=O)Oc1cccc2ccc[n+](CCCCCCCCCC[n+]3cccc4cccc(OC(=O)CCCCCCCCCCCCCCC)c43)c12.[Br-].[Br-],"InChI=1S/C60H94N2O4.2BrH/c1-3-5-7-9-11-13-15-17-19-21-25-29-33-47-57(63)65-55-45-37-41-53-43-39-51-61(59(53)55)49-35-31-27-23-24-28-32-36-50-62-52-40-44-54-42-38-46-56(60(54)62)66-58(64)48-34-30-26-22-20-18-16-14-12-10-8-6-4-2;;/h37-46,51-52H,3-36,47-50H2,1-2H3;2*1H/q+2;;/p-2",ANFLCFPSBZDSKB-UHFFFAOYSA-L,1064.558033688,0.0025,2.60205999132796,46,0.000000418,3.97,26,3.67778070526608,0.00021,25,gemini cationic,10.1080/01932691.2012.683979,10.1016/j.ces.2022.118208,,10.1080/01932691.2012.683979,10.1080/01932691.2012.683979,10.1080/01932691.2012.683979,10.1080/01932691.2012.683979,,10.1080/01932691.2012.683979
,CCCCCCCCCCCCCCCC(=O)Oc1cccc2ccc[n+](CCCCCC[n+]3cccc4cccc(OC(=O)CCCCCCCCCCCCCCC)c43)c12.[Br-].[Br-],"InChI=1S/C56H86N2O4.2BrH/c1-3-5-7-9-11-13-15-17-19-21-23-25-29-43-53(59)61-51-41-33-37-49-39-35-47-57(55(49)51)45-31-27-28-32-46-58-48-36-40-50-38-34-42-52(56(50)58)62-54(60)44-30-26-24-22-20-18-16-14-12-10-8-6-4-2;;/h33-42,47-48H,3-32,43-46H2,1-2H3;2*1H/q+2;;/p-2",HXIHBLGAAGJMJX-UHFFFAOYSA-L,1008.495433432,0.01,2,44,0.000000461,3.6,28,3.26760624017703,0.00054,25,gemini cationic,10.1080/01932691.2012.683979,10.1016/j.ces.2022.118208,,10.1080/01932691.2012.683979,10.1080/01932691.2012.683979,10.1080/01932691.2012.683979,10.1080/01932691.2012.683979,,10.1080/01932691.2012.683979
sodium-heptadecan-2-ylsulfate,CCCCCCCCCCCCCCCC(C)OS(=O)(=O)[O-].[Na+],"InChI=1S/C17H36O4S.Na/c1-3-4-5-6-7-8-9-10-11-12-13-14-15-16-17(2)21-22(18,19)20;/h17H,3-16H2,1-2H3,(H,18,19,20);/q;+1/p-1",VEJQEVUBEQDDNK-UHFFFAOYSA-M,358.21537488,0.00235,2.62893213772826,,0.000000474,3.5,,,,25,anionic,10.1021/ci600462d,,10.1006/jcis.1996.4680,,,,10.1081/DIS-120014014,,
sodium-3-hydroxyoctadecane-1-sulfonate,CCCCCCCCCCCCCCCC(O)CCS(=O)(=O)[O-].[Na+],"InChI=1S/C18H38O4S.Na/c1-2-3-4-5-6-7-8-9-10-11-12-13-14-15-18(19)16-17-23(20,21)22;/h18-19H,2-17H2,1H3,(H,20,21,22);/q;+1/p-1",WYMNMGKBGAKXHR-UHFFFAOYSA-M,372.231024944,0.0003802,3.41998788747058,,,,,,,25,anionic,10.1021/ci600462d,,,,,,,,
,CCCCCCCCCCCCCCCC(O)NC(O)(OS(=O)(=O)[O-])[C@H]1OC(O)[C@H](O)[C@@H](O)[C@@H]1O.[Na+],"InChI=1S/C22H45NO11S.Na/c1-2-3-4-5-6-7-8-9-10-11-12-13-14-15-16(24)23-22(29,34-35(30,31)32)20-18(26)17(25)19(27)21(28)33-20;/h16-21,23-29H,2-15H2,1H3,(H,30,31,32);/q;+1/p-1/t16?,17-,18-,19+,20-,21?,22?;/m0./s1",YLJJPESQGXNZPH-QUZGTXJCSA-M,553.253276508,0.00012,3.92081875395238,,,,,,,25,anionic,10.1021/ci600462d,,10.1016/s0008-6215(01)00077-5,,,,,,
,CCCCCCCCCCCCCCCC(O)OCCOCCOCCOCCOCCOCC,"InChI=1S/C28H58O7/c1-3-5-6-7-8-9-10-11-12-13-14-15-16-17-28(29)35-27-26-34-25-24-33-23-22-32-21-20-31-19-18-30-4-2/h28-29H,3-27H2,1-2H3",WESCVVGCYFKTJS-UHFFFAOYSA-N,506.418254196,0.00000166,5.77989191195995,32,0.0000044,0.38,40,6.58,0.000000263,25,non-ionic,10.1002/9781118228920.ch3,10.1002/9781118228920.ch5,,,10.1002/9781118228920.ch5,10.1002/9781118228920.ch5,,,
,CCCCCCCCCCCCCCCC(O)OCCOCCOCCOCCOCCOCCOCC,"InChI=1S/C30H62O8/c1-3-5-6-7-8-9-10-11-12-13-14-15-16-17-30(31)38-29-28-37-27-26-36-25-24-35-23-22-34-21-20-33-19-18-32-4-2/h30-31H,3-29H2,1-2H3",NPXYYGIDICJIDW-UHFFFAOYSA-N,550.444468944,0.0000017,5.76955107862173,33,0.0000038,0.44,39,6.69,0.000000205,25,non-ionic,10.1002/9781118228920.ch3,10.1002/9781118228920.ch5,,,10.1002/9781118228920.ch5,10.1002/9781118228920.ch5,,,
,CCCCCCCCCCCCCCCC(OCC)(OCC)OS(=O)(=O)[O-].[Na+],"InChI=1S/C20H42O6S.Na/c1-4-7-8-9-10-11-12-13-14-15-16-17-18-19-20(24-5-2,25-6-3)26-27(21,22)23;/h4-19H2,1-3H3,(H,21,22,23);/q;+1/p-1",KGQYPQIYDGYQGL-UHFFFAOYSA-M,432.252154312,0.0002355,3.62800908853509,,,,,,,25,anionic,10.1021/ci600462d,,10.1016/s0008-6215(01)00077-5,,,,,,
,CCCCCCCCCCCCCCCC1=NCC[N+]1(CCCCCC[N+]1(CCNCCN)CCN=C1CCCCCCCCCCCCCCC)CCNCCN.[Br-].[Br-],"InChI=1S/C50H104N8.2BrH/c1-3-5-7-9-11-13-15-17-19-21-23-25-29-33-49-55-41-47-57(49,45-39-53-37-35-51)43-31-27-28-32-44-58(46-40-54-38-36-52)48-42-56-50(58)34-30-26-24-22-20-18-16-14-12-10-8-6-4-2;;/h53-54H,3-48,51-52H2,1-2H3;2*1H/q+2;;/p-2",HUCKOTSOBPFSPT-UHFFFAOYSA-L,974.675069528,,,30.9,,,,,,,gemini cationic,,10.1016/j.ces.2022.118208,,10.1080/01932691.2019.1584112,,,,,
,CCCCCCCCCCCCCCCC1=[N+](CCO)CCN1.O=C([O-])O,"InChI=1S/C20H40N2O.CH2O3/c1-2-3-4-5-6-7-8-9-10-11-12-13-14-15-20-21-16-17-22(20)18-19-23;2-1(3)4/h23H,2-19H2,1H3;(H2,2,3,4)",DKPTVDBNCVBGSO-UHFFFAOYSA-N,386.314457824,,,36.4,,,,,,,zwitterionic,,10.1016/j.ces.2022.118208,,10.1007/s11743-012-1332-5,,,,,
,CCCCCCCCCCCCCCCC=CC(=O)OC(CO)COC(CO)COC(CO)COC(CO)CO,"InChI=1S/C30H58O10/c1-2-3-4-5-6-7-8-9-10-11-12-13-14-15-16-17-30(36)40-29(22-35)25-39-28(21-34)24-38-27(20-33)23-37-26(18-31)19-32/h16-17,26-29,31-35H,2-15,18-25H2,1H3",DDFVEEOXEIRHHM-UHFFFAOYSA-N,578.402998056,0.00003281,4.48399376961395,,,,,,,25,non-ionic,10.1021/ie4016232,,,,,,,,
,CCCCCCCCCCCCCCCC=CC(=O)OC(CO)COC(CO)COC(CO)COC(CO)COC(CO)COC(CO)CO,"InChI=1S/C36H70O14/c1-2-3-4-5-6-7-8-9-10-11-12-13-14-15-16-17-36(44)50-35(24-43)29-49-34(23-42)28-48-33(22-41)27-47-32(21-40)26-46-31(20-39)25-45-30(18-37)19-38/h16-17,30-35,37-43H,2-15,18-29H2,1H3",CGLZXMRFHRDXSN-UHFFFAOYSA-N,726.47655692,0.00002742,4.56193254954651,,,,,,,25,non-ionic,10.1021/ie4016232,,,,,,,,
,CCCCCCCCCCCCCCCC=CC(=O)OC(CO)COC(CO)COC(CO)COC(CO)COC(CO)COC(CO)COC(CO)COC(CO)COC(CO)COC(CO)CO,"InChI=1S/C48H94O22/c1-2-3-4-5-6-7-8-9-10-11-12-13-14-15-16-17-48(60)70-47(28-59)37-69-46(27-58)36-68-45(26-57)35-67-44(25-56)34-66-43(24-55)33-65-42(23-54)32-64-41(22-53)31-63-40(21-52)30-62-39(20-51)29-61-38(18-49)19-50/h16-17,38-47,49-59H,2-15,18-37H2,1H3",RRQVFEUKLKCQDA-UHFFFAOYSA-N,1022.623674648,0.00002109,4.67592342026051,,,,,,,25,non-ionic,10.1021/ie4016232,,,,,,,,
"1,3-2(hexadecylamidepropyldimethylammoniumchloride)isopropylalcohol",CCCCCCCCCCCCCCCCC(=O)NCCC[N+](C)(C)CC(O)C[N+](C)(C)CCCNC(=O)CCCCCCCCCCCCCCCC.[Cl-].[Cl-],"InChI=1S/C47H96N4O3.2ClH/c1-7-9-11-13-15-17-19-21-23-25-27-29-31-33-37-46(53)48-39-35-41-50(3,4)43-45(52)44-51(5,6)42-36-40-49-47(54)38-34-32-30-28-26-24-22-20-18-16-14-12-10-8-2;;/h45,52H,7-44H2,1-6H3;2*1H",QGTRJWBPMJVPGQ-UHFFFAOYSA-N,836.701598356,0.0000562,4.25026368443094,37.5,0.00000138,1.2,34.5,4.68,0.0000209,25,gemini cationic,10.1016/j.colsurfa.2018.11.061,10.1016/j.ces.2022.118208,,10.1016/j.colsurfa.2018.11.061,10.1016/j.colsurfa.2018.11.061,,10.1016/j.colsurfa.2018.11.061,10.1016/j.colsurfa.2018.11.061,10.1016/j.colsurfa.2018.11.061
,CCCCCCCCCCCCCCCCC(=O)NCC[N+](C)(C)Cc1ccccc1.[Cl-],"InChI=1S/C28H50N2O.ClH/c1-4-5-6-7-8-9-10-11-12-13-14-15-16-20-23-28(31)29-24-25-30(2,3)26-27-21-18-17-19-22-27;/h17-19,21-22H,4-16,20,23-26H2,1-3H3;1H",AKWNAYTZXGVRCP-UHFFFAOYSA-N,466.368991932,,,42.2,,,,,,,cationic,,10.1016/j.ces.2022.118208,,10.1021/la026286y,,,,,
,CCCCCCCCCCCCCCCCC(=O)OCC[n+]1ccc(CCCc2cc[n+](CCOC(=O)CCCCCCCCCCCCCCCC)cc2)cc1.[Br-].[Br-],"InChI=1S/C51H88N2O4.2BrH/c1-3-5-7-9-11-13-15-17-19-21-23-25-27-29-34-50(54)56-46-44-52-40-36-48(37-41-52)32-31-33-49-38-42-53(43-39-49)45-47-57-51(55)35-30-28-26-24-22-20-18-16-14-12-10-8-6-4-2;;/h36-43H,3-35,44-47H2,1-2H3;2*1H/q+2;;/p-2",AMZCDPVJNMTRRI-UHFFFAOYSA-L,950.511083496,0.00003597,4.44405956218149,,,,,,,25,gemini cationic,10.1063/5.0051623,,,,,,,,
,CCCCCCCCCCCCCCCCC(=O)OCC[n+]1ccc(CCCc2cc[n+](CCOC(=O)CCCCCCCCCCCCCCCC)cc2)cc1.[Cl-].[Cl-],"InChI=1S/C51H88N2O4.2ClH/c1-3-5-7-9-11-13-15-17-19-21-23-25-27-29-34-50(54)56-46-44-52-40-36-48(37-41-52)32-31-33-49-38-42-53(43-39-49)45-47-57-51(55)35-30-28-26-24-22-20-18-16-14-12-10-8-6-4-2;;/h36-43H,3-35,44-47H2,1-2H3;2*1H/q+2;;/p-2",CSKUDHXKIUXNIP-UHFFFAOYSA-L,862.612114656,0.00005495,4.26003230324049,,,,,,,25,gemini cationic,10.1063/5.0051623,,10.1002/9781119075691.ch43,,,,,,
,CCCCCCCCCCCCCCCCC(=O)[O-].[K+],"InChI=1S/C17H34O2.K/c1-2-3-4-5-6-7-8-9-10-11-12-13-14-15-16-17(18)19;/h2-16H2,1H3,(H,18,19);/q;+1/p-1",PLNPAJUNRPFSDU-UHFFFAOYSA-M,308.211761976,0.0018,2.74472749489669,,,,,,,35,anionic,10.1021/ci600462d,,10.1021/j150457a013,,,,,,
sodium-octadecan-2-ylsulfate,CCCCCCCCCCCCCCCCC(C)OS(=O)(=O)[O-].[Na+],"InChI=1S/C18H38O4S.Na/c1-3-4-5-6-7-8-9-10-11-12-13-14-15-16-17-18(2)22-23(19,20)21;/h18H,3-17H2,1-2H3,(H,19,20,21);/q;+1/p-1",UHOGYFJGPNJUTQ-UHFFFAOYSA-M,372.231024944,0.0004498,3.34698054890039,,0.000000452,3.67,,,,25,anionic,10.1021/ci600462d,,10.1006/jcis.1996.4680,,,,10.1081/DIS-120014014,,
,CCCCCCCCCCCCCCCCC(OC(=O)C(C)C)S(=O)(=O)[O-].[Na+],"InChI=1S/C21H42O5S.Na/c1-4-5-6-7-8-9-10-11-12-13-14-15-16-17-18-20(27(23,24)25)26-21(22)19(2)3;/h19-20H,4-18H2,1-3H3,(H,23,24,25);/q;+1/p-1",RFSJPLSGVRVJTH-UHFFFAOYSA-M,428.257239692,0.002716,2.56607023439154,,,,,,,25,anionic,10.1021/ci600462d,,,,,,,,
,CCCCCCCCCCCCCCCCC(OC(=O)CC)S(=O)(=O)[O-].[Na+],"InChI=1S/C20H40O5S.Na/c1-3-5-6-7-8-9-10-11-12-13-14-15-16-17-18-20(26(22,23)24)25-19(21)4-2;/h20H,3-18H2,1-2H3,(H,22,23,24);/q;+1/p-1",WIQAXYVIWGFURK-UHFFFAOYSA-M,414.241589628,0.00001262,4.89894064509188,,,,,,,25,anionic,10.1021/ci600462d,,,,,,,,
,CCCCCCCCCCCCCCCCC(OC(=O)CCC)S(=O)(=O)[O-].[Na+],"InChI=1S/C21H42O5S.Na/c1-3-5-6-7-8-9-10-11-12-13-14-15-16-17-19-21(27(23,24)25)26-20(22)18-4-2;/h21H,3-19H2,1-2H3,(H,23,24,25);/q;+1/p-1",AXJXFMJJTRYIPK-UHFFFAOYSA-M,428.257239692,0.00002698,4.56895805466411,,,,,,,25,anionic,10.1021/ci600462d,,,,,,,,
,CCCCCCCCCCCCCCCCC(OC(C)=O)S(=O)(=O)[O-].[Na+],"InChI=1S/C19H38O5S.Na/c1-3-4-5-6-7-8-9-10-11-12-13-14-15-16-17-19(24-18(2)20)25(21,22)23;/h19H,3-17H2,1-2H3,(H,21,22,23);/q;+1/p-1",OBRXYUIGGOPBSI-UHFFFAOYSA-M,400.225939564,0.00007834,4.10601643278815,,,,,,,25,anionic,10.1021/ci600462d,,,,,,,,
sodium-octadec-1-ene-1-sulfonate,CCCCCCCCCCCCCCCCC=CS(=O)(=O)[O-].[Na+],"InChI=1S/C18H36O3S.Na/c1-2-3-4-5-6-7-8-9-10-11-12-13-14-15-16-17-18-22(19,20)21;/h17-18H,2-16H2,1H3,(H,19,20,21);/q;+1/p-1",SZGKXOCIHKEMHV-UHFFFAOYSA-M,354.22046026,0.0001799,3.74496883665445,,,,,,,25,anionic,10.1021/ci600462d,,,,,,,,
N-octadecanoyl-N-methyllactitolamine,CCCCCCCCCCCCCCCCCC(=O)NC(O)[C@H]1O[C@@H](O[C@@H]([C@H](O)[C@@H](O)CO)[C@H](O)CO)[C@H](O)[C@@H](O)[C@H]1O,"InChI=1S/C30H59NO12/c1-2-3-4-5-6-7-8-9-10-11-12-13-14-15-16-17-22(36)31-29(41)28-25(39)24(38)26(40)30(43-28)42-27(21(35)19-33)23(37)20(34)18-32/h20-21,23-30,32-35,37-41H,2-19H2,1H3,(H,31,36)/t20-,21+,23+,24-,25+,26+,27+,28-,29?,30+/m0/s1",VIEJTMSFBVQUIW-JVIHODTRSA-N,625.403726328,0.00000562,5.25026368443094,35.7,0.00000332,0.499,36.27,5.95,0.0026058405184085,25,sugar-based non-ionic,10.1007/s11743-001-0169-1,10.1007/s11743-001-0169-1,,,10.1007/s11743-001-0169-1,calculated,,10.1007/s11743-001-0169-1,calculated
,CCCCCCCCCCCCCCCCCC(=O)NCCC[N+](C)(C)CC(O)COC1OC(CO)C(O)C(O)C1O.[Cl-],"InChI=1S/C32H64N2O8.ClH/c1-4-5-6-7-8-9-10-11-12-13-14-15-16-17-18-20-28(37)33-21-19-22-34(2,3)23-26(36)25-41-32-31(40)30(39)29(38)27(24-35)42-32;/h26-27,29-32,35-36,38-40H,4-25H2,1-3H3;1H",ASLUVSZOJLGIJD-UHFFFAOYSA-N,640.44294472,0.000000501,6.30016227413275,35.9,0.00000218,0.76,36.1,6.94697186361533,0.000961542431277514,25,cationic,10.1007/s11743-010-1225-4,10.1016/j.ces.2022.118208,,10.1007/s11743-010-1225-4,10.1007/s11743-010-1225-4,,10.1007/s11743-010-1225-4,calculated,calculated
,CCCCCCCCCCCCCCCCCC(=O)NCCC[N+](C)(C)CCOC1OC(CO)C(O)C(O)C1O.[Cl-],"InChI=1S/C31H62N2O7.ClH/c1-4-5-6-7-8-9-10-11-12-13-14-15-16-17-18-20-27(35)32-21-19-22-33(2,3)23-24-39-31-30(38)29(37)28(36)26(25-34)40-31;/h26,28-31,34,36-38H,4-25H2,1-3H3;1H",RKBXUOPGUOBHDX-UHFFFAOYSA-N,610.432380036,0.00000525,5.27984069659404,47.8,0.00000106,1.57,24.2,5.62685749029511,0.00359987019795,25,cationic,10.1007/s11743-010-1225-4,10.1016/j.ces.2022.118208,,10.1007/s11743-010-1225-4,10.1007/s11743-010-1225-4,,10.1007/s11743-010-1225-4,calculated,calculated
,CCCCCCCCCCCCCCCCCC(=O)OC(C)C(=O)NCCCN(C)C,"InChI=1S/C26H52N2O3/c1-5-6-7-8-9-10-11-12-13-14-15-16-17-18-19-21-25(29)31-24(2)26(30)27-22-20-23-28(3)4/h24H,5-23H2,1-4H3,(H,27,30)",XPEFFNDDFXPQIN-UHFFFAOYSA-N,440.397793524,,,29,,,,,,,non-ionic,,10.1016/j.ces.2022.118208,,10.1007/s11743-000-0142-z,,,,,
,CCCCCCCCCCCCCCCCCC(=O)OC(C)C(=O)NCCC[N+](C)(C)C.COS(=O)(=O)[O-],"InChI=1S/C27H54N2O3.CH4O4S/c1-6-7-8-9-10-11-12-13-14-15-16-17-18-19-20-22-26(30)32-25(2)27(31)28-23-21-24-29(3,4)5;1-5-6(2,3)4/h25H,6-24H2,1-5H3;1H3,(H,2,3,4)",NTIGGCHLOZKWRE-UHFFFAOYSA-N,566.396473196,,,35.8,,,,,,,zwitterionic,,10.1016/j.ces.2022.118208,,10.1007/s11743-000-0142-z,,,,,
,CCCCCCCCCCCCCCCCCC(=O)OCC1OC(OCCC[N+](C)(C)C)C(O)C(O)C1O.[I-],"InChI=1S/C30H60NO7.HI/c1-5-6-7-8-9-10-11-12-13-14-15-16-17-18-19-21-26(32)37-24-25-27(33)28(34)29(35)30(38-25)36-23-20-22-31(2,3)4;/h25,27-30,33-35H,5-24H2,1-4H3;1H/q+1;/p-1",WTVBDJUHMDFFJF-UHFFFAOYSA-M,673.34145126,,,39.7,,,,,,,cationic,,10.1016/j.ces.2022.118208,,10.1007/s11743-998-0005-7,,,,,
,CCCCCCCCCCCCCCCCCC(=O)OCCC(CO)COC(CO)COC(CO)COC(CO)CO,"InChI=1S/C32H64O10/c1-2-3-4-5-6-7-8-9-10-11-12-13-14-15-16-17-32(38)39-19-18-28(20-33)25-40-30(23-36)27-42-31(24-37)26-41-29(21-34)22-35/h28-31,33-37H,2-27H2,1H3",JFVLNFBBPPFZEZ-UHFFFAOYSA-N,608.449948248,0.00002239,4.64994590642097,,,,,,,25,non-ionic,10.1021/ie4016232,,,,,,,,
,CCCCCCCCCCCCCCCCCC(=O)OCCC(CO)COC(CO)COC(CO)COC(CO)COC(CO)COC(CO)CO,"InChI=1S/C38H76O14/c1-2-3-4-5-6-7-8-9-10-11-12-13-14-15-16-17-38(46)47-19-18-32(20-39)27-48-34(23-42)29-50-36(25-44)31-52-37(26-45)30-51-35(24-43)28-49-33(21-40)22-41/h32-37,39-45H,2-31H2,1H3",JWKGJQBWPXJKNI-UHFFFAOYSA-N,756.523507112,0.00002799,4.55299710153384,,,,,,,25,non-ionic,10.1021/ie4016232,,,,,,,,
POE(20) sorbitan monostearate,CCCCCCCCCCCCCCCCCC(=O)OCCOCC(OCCO)C1OCC(OCCO)C1OCCO,"InChI=1S/C32H62O10/c1-2-3-4-5-6-7-8-9-10-11-12-13-14-15-16-17-30(36)40-25-24-37-26-28(38-21-18-33)32-31(41-23-20-35)29(27-42-32)39-22-19-34/h28-29,31-35H,2-27H2,1H3",DEKFZWMENCCOFU-UHFFFAOYSA-N,606.434298184,0.000021,4.67778070526608,,,,,,,24.85,non-ionic,10.1007/s11743-001-0184-2,,,,,,,,
POE(8) stearate,CCCCCCCCCCCCCCCCCC(=O)OCCOCCOCCOCCOCCOCCOCCOCCO,"InChI=1S/C34H68O10/c1-2-3-4-5-6-7-8-9-10-11-12-13-14-15-16-17-34(36)44-33-32-43-31-30-42-29-28-41-27-26-40-25-24-39-23-22-38-21-20-37-19-18-35/h35H,2-33H2,1H3",MOKBFXZQXUZAMV-UHFFFAOYSA-N,636.481248376,0.000373,3.42829116819131,,,,,,,24.85,non-ionic,10.1007/s11743-001-0184-2,,,,,,,,
,CCCCCCCCCCCCCCCCCC(=O)OCC[N+](C)(CCO)CCOC(=O)CCCCCCCCCCCCCCCCC.COS(=O)(=O)[O-],"InChI=1S/C43H86NO5.CH4O4S/c1-4-6-8-10-12-14-16-18-20-22-24-26-28-30-32-34-42(46)48-40-37-44(3,36-39-45)38-41-49-43(47)35-33-31-29-27-25-23-21-19-17-15-13-11-9-7-5-2;1-5-6(2,3)4/h45H,4-41H2,1-3H3;1H3,(H,2,3,4)/q+1;/p-1",FPKBRMRMNGYJLA-UHFFFAOYSA-M,807.625804428,,,30,,,,,,,zwitterionic,,10.1016/j.ces.2022.118208,,10.1108/00368791011064437,,,,,
,CCCCCCCCCCCCCCCCCC(=O)Oc1cccc2ccc[n+](CCCCCCCCCC)c12.[Br-],"InChI=1S/C37H62NO2.BrH/c1-3-5-7-9-11-13-14-15-16-17-18-19-20-22-24-31-36(39)40-35-30-26-28-34-29-27-33-38(37(34)35)32-25-23-21-12-10-8-6-4-2;/h26-30,33H,3-25,31-32H2,1-2H3;1H/q+1;/p-1",VQXSAYGRVPIMQZ-UHFFFAOYSA-M,631.396392324,0.015,1.82390874094432,47,0.000000873,1.9,23,2.22184874961636,0.006,25,cationic,10.1080/01932691.2012.683979,10.1016/j.ces.2022.118208,,10.1080/01932691.2012.683979,10.1080/01932691.2012.683979,10.1080/01932691.2012.683979,10.1080/01932691.2012.683979,,10.1080/01932691.2012.683979
,CCCCCCCCCCCCCCCCCC(=O)Oc1cccc2ccc[n+](CCCCCCCCCC[n+]3cccc4cccc(OC(=O)CCCCCCCCCCCCCCCCC)c43)c12.[Br-].[Br-],"InChI=1S/C64H102N2O4.2BrH/c1-3-5-7-9-11-13-15-17-19-21-23-25-29-33-37-51-61(67)69-59-49-41-45-57-47-43-55-65(63(57)59)53-39-35-31-27-28-32-36-40-54-66-56-44-48-58-46-42-50-60(64(58)66)70-62(68)52-38-34-30-26-24-22-20-18-16-14-12-10-8-6-4-2;;/h41-50,55-56H,3-40,51-54H2,1-2H3;2*1H/q+2;;/p-2",VHUHYLLPYFIVJO-UHFFFAOYSA-L,1120.620633944,0.0002,3.69897000433602,50,0.000000449,3.7,22,4,0.0001,25,gemini cationic,10.1080/01932691.2012.683979,10.1016/j.ces.2022.118208,,10.1080/01932691.2012.683979,10.1080/01932691.2012.683979,10.1080/01932691.2012.683979,10.1080/01932691.2012.683979,,10.1080/01932691.2012.683979
,CCCCCCCCCCCCCCCCCC(=O)Oc1cccc2ccc[n+](CCCCCC[n+]3cccc4cccc(OC(=O)CCCCCCCCCCCCCCCCC)c43)c12.[Br-].[Br-],"InChI=1S/C60H94N2O4.2BrH/c1-3-5-7-9-11-13-15-17-19-21-23-25-27-29-33-47-57(63)65-55-45-37-41-53-43-39-51-61(59(53)55)49-35-31-32-36-50-62-52-40-44-54-42-38-46-56(60(54)62)66-58(64)48-34-30-28-26-24-22-20-18-16-14-12-10-8-6-4-2;;/h37-46,51-52H,3-36,47-50H2,1-2H3;2*1H/q+2;;/p-2",MGXCXULHGADDAG-UHFFFAOYSA-L,1064.558033688,0.01,2,46,0.000000513,3.24,26,2.65757731917779,0.0022,25,gemini cationic,10.1080/01932691.2012.683979,10.1016/j.ces.2022.118208,,10.1080/01932691.2012.683979,10.1080/01932691.2012.683979,10.1080/01932691.2012.683979,10.1080/01932691.2012.683979,,10.1080/01932691.2012.683979
,CCCCCCCCCCCCCCCCCC1=[N+](CCO)CCN1.O=C([O-])O,"InChI=1S/C22H44N2O.CH2O3/c1-2-3-4-5-6-7-8-9-10-11-12-13-14-15-16-17-22-23-18-19-24(22)20-21-25;2-1(3)4/h25H,2-21H2,1H3;(H2,2,3,4)",UYXHHCSFMVOYRY-UHFFFAOYSA-N,414.345757952,,,33.1,,,,,,,zwitterionic,,10.1016/j.ces.2022.118208,,10.1007/s11743-012-1332-5,,,,,
,CCCCCCCCCCCCCCCCCCC(O)[C@H]1O[C@H](O[C@]2(CO)O[C@H](CO)[C@@H](O)[C@@H]2O)[C@H](O)[C@@H](O)[C@@H]1O,"InChI=1S/C30H58O11/c1-2-3-4-5-6-7-8-9-10-11-12-13-14-15-16-17-18-21(33)27-25(36)24(35)26(37)29(39-27)41-30(20-32)28(38)23(34)22(19-31)40-30/h21-29,31-38H,2-20H2,1H3/t21?,22-,23-,24+,25+,26-,27-,28+,29-,30+/m1/s1",YAJZVCVAYXPYJR-VILDNSELSA-N,594.397912676,0.000005105,5.29200425357707,,,,,,,25,non-ionic,10.1021/ie4016232,,,,,,,,
,CCCCCCCCCCCCCCCCCCCCCCCCCCCCCCCCCCCCCCCCCCCCCCCCCCCOCOOCCOCCOCCCCCC,"InChI=1S/C62H126O5/c1-3-5-7-9-10-11-12-13-14-15-16-17-18-19-20-21-22-23-24-25-26-27-28-29-30-31-32-33-34-35-36-37-38-39-40-41-42-43-44-45-46-47-48-49-50-51-52-53-55-57-65-62-67-66-61-60-64-59-58-63-56-54-8-6-4-2/h3-62H2,1-2H3",RKIKNXCKQFYMKR-UHFFFAOYSA-N,950.960527132,0.00001138,4.94385773794095,,,,,,,25,non-ionic,10.1021/ie4016232,,,,,,,,
,CCCCCCCCCCCCCCCCCCCCCCCCCCCC[C@]1(C)C[C@@](C)(O)CC(=O)O1,"InChI=1S/C35H68O3/c1-4-5-6-7-8-9-10-11-12-13-14-15-16-17-18-19-20-21-22-23-24-25-26-27-28-29-30-35(3)32-34(2,37)31-33(36)38-35/h37H,4-32H2,1-3H3/t34-,35+/m0/s1",MZXMVAPEEIAJLN-OIDHKYIRSA-N,536.516846036,0.0005998,3.22199353857649,,,,,,,25,non-ionic,10.1021/ie4016232,,,,,,,,
,CCCCCCCCCCCCCCCCCCN(C)C(=O)C(O)C(O)C(O)C(O)CO,"InChI=1S/C25H51NO6/c1-3-4-5-6-7-8-9-10-11-12-13-14-15-16-17-18-19-26(2)25(32)24(31)23(30)22(29)21(28)20-27/h21-24,27-31H,3-20H2,1-2H3",DUBGARALAZQDOD-UHFFFAOYSA-N,461.371638352,,,32.1,,,,,,,non-ionic,,10.1016/j.ces.2022.118208,,10.1002/0471670561,,,,,
,CCCCCCCCCCCCCCCCCCN(C)C(=O)COCOCOCO,"InChI=1S/C24H49NO5/c1-3-4-5-6-7-8-9-10-11-12-13-14-15-16-17-18-19-25(2)24(27)20-28-22-30-23-29-21-26/h26H,3-23H2,1-2H3",FLPLQLRUMKLEOI-UHFFFAOYSA-N,431.361073668,0.00000285,5.54515513999149,32.3,0.00000397,0.418271805333463,39.7,6.46,0.000000352,20,non-ionic,10.1002/9781118228920.ch3,10.1002/9781118228920.ch5,,10.1006/jcis.2001.7704,10.1002/9781118228920.ch5,10.1002/9781118228920.ch5,calculated,10.1006/jcis.2001.7704,
N-octadecyl-N-methyllactobionamide,CCCCCCCCCCCCCCCCCCN(C)C(=O)[C@H](O)[C@@H](O)[C@H](O[C@@H]1O[C@H](C)[C@H](O)[C@H](O)[C@H]1O)[C@H](O)CO,"InChI=1S/C31H61NO10/c1-4-5-6-7-8-9-10-11-12-13-14-15-16-17-18-19-20-32(3)30(40)27(38)26(37)29(23(34)21-33)42-31-28(39)25(36)24(35)22(2)41-31/h22-29,31,33-39H,4-21H2,1-3H3/t22-,23-,24+,25+,26-,27-,28-,29-,31+/m1/s1",WMJMHQFBQYVJQH-FWAXZFPSSA-N,607.429547152,0.0000033,5.48148606012211,34.6,0.00000396,0.42,38.2,6.34,0.000000457,20,sugar-based non-ionic,10.1021/acs.iecr.6b02890,10.1016/j.jcis.2018.01.051,10.1016/j.molliq.2018.01.037,,10.1006/jcis.2001.7704,10.1006/jcis.2001.7704,10.1006/jcis.2001.7704,10.1006/jcis.2001.7704,