IUPAC_name,SMILES,InChI,InChIKey,Molecular_Weight,CMC,pCMC,AW_ST_CMC,Gamma_max,Area_min,Pi_CMC,PC20,C20,Temp_Celsius,Surfactant_Type,Ref_CMC,Ref_AW_ST_CMC,SubRef_CMC,SubRef_AW_ST_CMC,Ref_Gamma_max,Ref_Pi_CMC,Ref_Area_min,Ref_PC20,Ref_C20
,CCCCCCCCCC1OCC(C[N+](C)(C)C)O1.[Br-],"InChI=1S/C16H34NO2.BrH/c1-5-6-7-8-9-10-11-12-16-18-14-15(19-16)13-17(2,3)4;/h15-16H,5-14H2,1-4H3;1H/q+1;/p-1",XOOLIGUWRHOBLY-UHFFFAOYSA-M,351.177291428,,,31.4,,,,,,,cationic,,10.1016/j.ces.2022.118208,,10.1016/0927-7757(95)03093-S,,,,,
"N,N-bis(2-hydroxyethyl)undecanamide",CCCCCCCCCCC(=O)N(CCO)CCO,"InChI=1S/C15H31NO3/c1-2-3-4-5-6-7-8-9-10-15(19)16(11-13-17)12-14-18/h17-18H,2-14H2,1H3",ZDJBDLYSTNLOIW-UHFFFAOYSA-N,273.230393852,0.000264,3.57839607313017,,,,,,,25,non-ionic,10.1002/9781118228920.ch3,,,,,,,,
,CCCCCCCCCCC(=O)NCCOCCOCCOCCO,"InChI=1S/C19H39NO5/c1-2-3-4-5-6-7-8-9-10-19(22)20-11-13-23-15-17-25-18-16-24-14-12-21/h21H,2-18H2,1H3,(H,20,22)",ZTNORSQLDDRZPV-UHFFFAOYSA-N,361.282823348,0.0005,3.30102999566398,,,,,,,25,non-ionic,10.1002/9781118228920.ch3,,,,,,,,
,CCCCCCCCCCC(=O)NCC[N+](C)(C)Cc1ccccc1.[Cl-],"InChI=1S/C22H38N2O.ClH/c1-4-5-6-7-8-9-10-14-17-22(25)23-18-19-24(2,3)20-21-15-12-11-13-16-21;/h11-13,15-16H,4-10,14,17-20H2,1-3H3;1H",NVZKQZCUOLACHU-UHFFFAOYSA-N,382.275091548,,,39,,,,,,,cationic,,10.1016/j.ces.2022.118208,,10.1021/la026286y,,,,,
,CCCCCCCCCCC(=O)N[N+](C)(C)CCC[N+](C)(C)NC(=O)CCCCCCCCCC.[Br-].[Br-],"InChI=1S/C29H60N4O2.2BrH/c1-7-9-11-13-15-17-19-21-24-28(34)30-32(3,4)26-23-27-33(5,6)31-29(35)25-22-20-18-16-14-12-10-8-2;;/h7-27H2,1-6H3;2*1H",YIRQESGFXOBLQQ-UHFFFAOYSA-N,656.323951424,0.002339,2.63096977819085,,,,,,,25,gemini cationic,10.1063/5.0051623,,,,,,,,
,CCCCCCCCCCC(=O)OC(C)C(=O)NCCCN(C)C,"InChI=1S/C19H38N2O3/c1-5-6-7-8-9-10-11-12-14-18(22)24-17(2)19(23)20-15-13-16-21(3)4/h17H,5-16H2,1-4H3,(H,20,23)",YXPDYICCLXTCME-UHFFFAOYSA-N,342.288243076,,,34.1,,,,,,,non-ionic,,10.1016/j.ces.2022.118208,,10.1007/s11743-000-0142-z,,,,,
,CCCCCCCCCCC(=O)OC(C)C(=O)NCCC[N+](C)(C)C.COS(=O)(=O)[O-],"InChI=1S/C20H40N2O3.CH4O4S/c1-6-7-8-9-10-11-12-13-15-19(23)25-18(2)20(24)21-16-14-17-22(3,4)5;1-5-6(2,3)4/h18H,6-17H2,1-5H3;1H3,(H,2,3,4)",JGMKUVAXRGXEBS-UHFFFAOYSA-N,468.286922748,,,25.2,,,,,,,zwitterionic,,10.1016/j.ces.2022.118208,,10.1007/s11743-000-0142-z,,,,,
6-O-dodecanoylstachyose,CCCCCCCCCCC(=O)OC(O)[C@H]1O[C@H](OC[C@H]2O[C@H](OC[C@H]3O[C@H](O[C@]4(CO)O[C@H](CO)[C@@H](O)[C@@H]4O)[C@H](O)[C@@H](O)[C@@H]3O)[C@H](O)[C@@H](O)[C@H]2O)[C@H](O)[C@@H](O)[C@H]1O,"InChI=1S/C35H62O23/c1-2-3-4-5-6-7-8-9-10-18(38)55-31(50)29-25(45)24(44)27(47)33(56-29)52-12-16-19(39)22(42)26(46)32(53-16)51-13-17-20(40)23(43)28(48)34(54-17)58-35(14-37)30(49)21(41)15(11-36)57-35/h15-17,19-34,36-37,39-50H,2-14H2,1H3/t15-,16-,17-,19+,20-,21-,22+,23+,24+,25-,26-,27-,28-,29+,30+,31?,32+,33+,34-,35+/m1/s1",TVKJACFXWGCTTQ-VLSVWADMSA-N,850.368188244,0.0023,2.63827216398241,43,0.00000231,0.72,29.75,3.33235692283769,0.0357088428197048,20,sugar-based non-ionic,10.1021/acs.iecr.6b02890,10.1016/j.jcis.2018.01.051,10.1016/j.molliq.2018.01.037,,10.5650/jos.ess22391,calculated,,calculated,calculated
6-O-dodecanoylraffinose,CCCCCCCCCCC(=O)OC(O)[C@H]1O[C@H](OC[C@H]2O[C@H](O[C@]3(CO)O[C@H](CO)[C@@H](O)[C@@H]3O)[C@H](O)[C@@H](O)[C@@H]2O)[C@H](O)[C@@H](O)[C@H]1O,"InChI=1S/C29H52O18/c1-2-3-4-5-6-7-8-9-10-16(32)44-26(41)24-21(37)20(36)22(38)27(45-24)42-12-15-17(33)19(35)23(39)28(43-15)47-29(13-31)25(40)18(34)14(11-30)46-29/h14-15,17-28,30-31,33-41H,2-13H2,1H3/t14-,15-,17-,18-,19+,20+,21-,22-,23-,24+,25+,26?,27+,28-,29+/m1/s1",PFWWYWWKFBNSCG-VAQUCQKHSA-N,688.315364824,0.00095,3.02227639471115,44.1,0.00000248,0.67,28.65,3.58976531784512,0.0276048080189625,20,sugar-based non-ionic,10.1021/acs.iecr.6b02890,10.1016/j.jcis.2018.01.051,10.1016/j.molliq.2018.01.037,,10.5650/jos.ess22391,calculated,,calculated,calculated
6-O-dodecanoylsucrose,CCCCCCCCCCC(=O)OC(O)[C@H]1O[C@H](O[C@]2(CO)O[C@H](CO)[C@@H](O)[C@@H]2O)[C@H](O)[C@@H](O)[C@@H]1O,"InChI=1S/C23H42O13/c1-2-3-4-5-6-7-8-9-10-14(26)33-21(32)19-17(29)16(28)18(30)22(34-19)36-23(12-25)20(31)15(27)13(11-24)35-23/h13,15-22,24-25,27-32H,2-12H2,1H3/t13-,15-,16+,17+,18-,19+,20+,21?,22-,23+/m1/s1",WRRBOVMTOZYSNK-KERDFOSTSA-N,526.262541404,0.00046,3.33724216831843,37.4,0.00000297,0.56,35.35,4.21298861714571,0.0148020644637556,20,sugar-based non-ionic,10.1021/acs.iecr.6b02890,10.1016/j.jcis.2018.01.051,10.1016/j.molliq.2018.01.037,,10.5650/jos.ess22391,calculated,,calculated,calculated
,CCCCCCCCCCC(=O)OCCCC[N+](C)(C)CC(O)C[N+](C)(C)CCCCOC(=O)CCCCCCCCCC.[Cl-].[Cl-],"InChI=1S/C37H76N2O5.2ClH/c1-7-9-11-13-15-17-19-21-27-36(41)43-31-25-23-29-38(3,4)33-35(40)34-39(5,6)30-24-26-32-44-37(42)28-22-20-18-16-14-12-10-8-2;;/h35,40H,7-34H2,1-6H3;2*1H/q+2;;/p-2",KQKJAVYDYCBPRK-UHFFFAOYSA-L,698.513128892,,,34,,,,,,,gemini cationic,,10.1016/j.ces.2022.118208,,10.1007/s11743-000-0121-4,,,,,
,CCCCCCCCCCC(=O)OCC[N+](C)(C)CC(O)C[N+](C)(C)CCOC(=O)CCCCCCCCCC.[Cl-].[Cl-],"InChI=1S/C33H68N2O5.2ClH/c1-7-9-11-13-15-17-19-21-23-32(37)39-27-25-34(3,4)29-31(36)30-35(5,6)26-28-40-33(38)24-22-20-18-16-14-12-10-8-2;;/h31,36H,7-30H2,1-6H3;2*1H/q+2;;/p-2",APKUKJKHHIBJIN-UHFFFAOYSA-L,642.450528636,,,30,,,,,,,gemini cationic,,10.1016/j.ces.2022.118208,,10.1007/s11743-000-0121-4,,,,,
,CCCCCCCCCCC(=O)[O-].[K+],"InChI=1S/C11H22O2.K/c1-2-3-4-5-6-7-8-9-10-11(12)13;/h2-10H2,1H3,(H,12,13);/q;+1/p-1",NFFKRJOYWMTDBM-UHFFFAOYSA-M,224.117861592,0.098,1.00877392430751,,,,,,,25,anionic,10.1021/ci600462d,,10.1021/j150457a013,,,,,,
2-(trimethylazaniumyl)dodecanoate,CCCCCCCCCCC(C(=O)[O-])[N+](C)(C)C,"InChI=1S/C15H31NO2/c1-5-6-7-8-9-10-11-12-13-14(15(17)18)16(2,3)4/h14H,5-13H2,1-4H3",ZVZRHYNDLMSKIV-UHFFFAOYSA-N,257.235479232,0.013,1.88605664769316,,,,,,,27,zwitterionic,10.1002/9781118228920.ch3,,,,,,,,
,CCCCCCCCCCC(C(=O)[O-])[n+]1ccccc1,"InChI=1S/C17H27NO2/c1-2-3-4-5-6-7-8-10-13-16(17(19)20)18-14-11-9-12-15-18/h9,11-12,14-16H,2-8,10,13H2,1H3",AOVODUFHIPYAPX-UHFFFAOYSA-N,277.204179104,0.0052,2.2839966563652,39.9,0.00000359,0.462545701162631,32.1,,,25,zwitterionic,10.1002/9781118228920.ch3,,,,10.1002/9781118228920.ch5,10.1002/9781118228920.ch5,calculated,,10.1002/9781118228920.ch5
sodium-dodecane-2-sulfonate,CCCCCCCCCCC(C)S(=O)(=O)[O-].[Na+],"InChI=1S/C12H26O3S.Na/c1-3-4-5-6-7-8-9-10-11-12(2)16(13,14)15;/h12H,3-11H2,1-2H3,(H,13,14,15);/q;+1/p-1",IGWZMCDSPZTBJH-UHFFFAOYSA-M,272.14220994,0.01489,1.82710530224782,,,,,,,25,anionic,10.1021/ci600462d,,,,,,,,
sodium-4-dodecan-2-ylbenzenesulfonate,CCCCCCCCCCC(C)c1ccc(S(=O)(=O)[O-])cc1.[Na+],"InChI=1S/C18H30O3S.Na/c1-3-4-5-6-7-8-9-10-11-16(2)17-12-14-18(15-13-17)22(19,20)21;/h12-16H,3-11H2,1-2H3,(H,19,20,21);/q;+1/p-1",GHRHULTYHYEOQB-UHFFFAOYSA-M,348.173510068,0.002032,2.69207629638812,,,,,,,25,anionic,10.1021/ci600462d,,10.1006/jcis.1996.4680,,,,,,
sodium-tetradecan-4-ylsulfate,CCCCCCCCCCC(CCC)OS(=O)(=O)[O-].[Na+],"InChI=1S/C14H30O4S.Na/c1-3-5-6-7-8-9-10-11-13-14(12-4-2)18-19(15,16)17;/h14H,3-13H2,1-2H3,(H,15,16,17);/q;+1/p-1",IVRRGHRQGKGQIH-UHFFFAOYSA-M,316.168424688,0.005152,2.28802414564824,,0.000000414,4.01,,,,25,anionic,10.1021/ci600462d,,10.1006/jcis.1996.4680,,,,10.1081/DIS-120014014,,
sodium-4-tetradecan-4-ylbenzenesulfonate,CCCCCCCCCCC(CCC)c1ccc(S(=O)(=O)[O-])cc1.[Na+],"InChI=1S/C20H34O3S.Na/c1-3-5-6-7-8-9-10-11-13-18(12-4-2)19-14-16-20(17-15-19)24(21,22)23;/h14-18H,3-13H2,1-2H3,(H,21,22,23);/q;+1/p-1",QFVKESMXRQJDLY-UHFFFAOYSA-M,376.204810196,0.001259,2.89997426989214,,,,,,,25,anionic,10.1021/ci600462d,,10.1016/j.theochem.2004.08.039,,,,,,
,CCCCCCCCCCC(CCCC)COS(=O)(=O)[O-].[Na+],"InChI=1S/C16H34O4S.Na/c1-3-5-7-8-9-10-11-12-14-16(13-6-4-2)15-20-21(17,18)19;/h16H,3-15H2,1-2H3,(H,17,18,19);/q;+1/p-1",CHDKOYVXEFOBCW-UHFFFAOYSA-M,344.199724816,0.002301,2.63808338133136,,,,,,,25,anionic,10.1021/ci600462d,,10.1006/jcis.1996.4680,,,,,,
,CCCCCCCCCCC(CCCC)OS(=O)(=O)[O-].[Na+],"InChI=1S/C15H32O4S.Na/c1-3-5-7-8-9-10-11-12-14-15(13-6-4-2)19-20(16,17)18;/h15H,3-14H2,1-2H3,(H,16,17,18);/q;+1/p-1",PATOMCFIQRCHIQ-UHFFFAOYSA-M,330.184074752,0.006653,2.17698247655395,,,,,,,25,anionic,10.1021/ci600462d,,10.1006/jcis.1996.4680,,,,,,
sodium-4-pentadecan-5-ylbenzenesulfonate,CCCCCCCCCCC(CCCC)c1ccc(S(=O)(=O)[O-])cc1.[Na+],"InChI=1S/C21H36O3S.Na/c1-3-5-7-8-9-10-11-12-14-19(13-6-4-2)20-15-17-21(18-16-20)25(22,23)24;/h15-19H,3-14H2,1-2H3,(H,22,23,24);/q;+1/p-1",FMUORGXCFVRCBO-UHFFFAOYSA-M,390.22046026,0.000912,3.04000516167158,,,,,,,25,anionic,10.1021/ci600462d,,10.1016/j.theochem.2004.08.039,,,,,,
sodium-hexadecan-6-ylsulfate,CCCCCCCCCCC(CCCCC)OS(=O)(=O)[O-].[Na+],"InChI=1S/C16H34O4S.Na/c1-3-5-7-8-9-10-11-13-15-16(14-12-6-4-2)20-21(17,18)19;/h16H,3-15H2,1-2H3,(H,17,18,19);/q;+1/p-1",UCRLERTWMPNFAF-UHFFFAOYSA-M,344.199724816,0.004246,2.37202001017002,,0.0000005,3.32,,,,25,anionic,10.1021/ci600462d,,10.1006/jcis.1996.4680,,,,10.1081/DIS-120014014,,
,CCCCCCCCCCC(CCS(=O)(=O)[O-])OC(C)=O.[Na+],"InChI=1S/C15H30O5S.Na/c1-3-4-5-6-7-8-9-10-11-15(20-14(2)16)12-13-21(17,18)19;/h15H,3-13H2,1-2H3,(H,17,18,19);/q;+1/p-1",XNVRVPAODQRBMX-UHFFFAOYSA-M,344.163339308,0.002612,2.58302682739696,,,,,,,25,anionic,10.1021/ci600462d,,,,,,,,
sodium-1-hydroxydodecane-2-sulfonate,CCCCCCCCCCC(CO)S(=O)(=O)[O-].[Na+],"InChI=1S/C12H26O4S.Na/c1-2-3-4-5-6-7-8-9-10-12(11-13)17(14,15)16;/h12-13H,2-11H2,1H3,(H,14,15,16);/q;+1/p-1",MOOGNAJSIAIPMW-UHFFFAOYSA-M,288.13712456,0.01633,1.78701381526333,,,,,,,25,anionic,10.1021/ci600462d,,,,,,,,
,CCCCCCCCCCC(CSCCCCSCC(CCCCCCCCCC)[n+]1ccn(C)c1)[n+]1ccn(C)c1.[Br-].[Br-],"InChI=1S/C36H68N4S2.2BrH/c1-5-7-9-11-13-15-17-19-23-35(39-27-25-37(3)33-39)31-41-29-21-22-30-42-32-36(40-28-26-38(4)34-40)24-20-18-16-14-12-10-8-6-2;;/h25-28,33-36H,5-24,29-32H2,1-4H3;2*1H/q+2;;/p-2",IWBJMIXSXHGHDS-UHFFFAOYSA-L,778.325214376,0.0003097,3.50905879464321,,,,,,,25,gemini cationic,10.1063/5.0051623,,10.1002/9781119075691.ch43,,,,,,
,CCCCCCCCCCC(CSCCCSCC(CCCCCCCCCC)[n+]1ccn(C)c1)[n+]1ccn(C)c1.[Br-].[Br-],"InChI=1S/C35H66N4S2.2BrH/c1-5-7-9-11-13-15-17-19-22-34(38-26-24-36(3)32-38)30-40-28-21-29-41-31-35(39-27-25-37(4)33-39)23-20-18-16-14-12-10-8-6-2;;/h24-27,32-35H,5-23,28-31H2,1-4H3;2*1H/q+2;;/p-2",XXUBTAXVHRHEHD-UHFFFAOYSA-L,764.309564312,0.003499,2.45605605751709,,,,,,,25,gemini cationic,10.1063/5.0051623,,10.1002/9781119075691.ch43,,,,,,
,CCCCCCCCCCC(CSCCSCC(CCCCCCCCCC)[n+]1ccccc1)[n+]1ccccc1.[Br-].[Br-],"InChI=1S/C36H62N2S2.2BrH/c1-3-5-7-9-11-13-15-19-25-35(37-27-21-17-22-28-37)33-39-31-32-40-34-36(38-29-23-18-24-30-38)26-20-16-14-12-10-8-6-4-2;;/h17-18,21-24,27-30,35-36H,3-16,19-20,25-26,31-34H2,1-2H3;2*1H/q+2;;/p-2",YOQKJUCDARLCOT-UHFFFAOYSA-L,744.272116184,0.0004295,3.36703683183274,,,,,,,25,gemini cationic,10.1063/5.0051623,,10.1002/9781119075691.ch43,,,,,,
,CCCCCCCCCCC(CSCCSCC(CCCCCCCCCC)[n+]1ccn(C)c1)[n+]1ccn(C)c1.[Br-].[Br-],"InChI=1S/C34H64N4S2.2BrH/c1-5-7-9-11-13-15-17-19-21-33(37-25-23-35(3)31-37)29-39-27-28-40-30-34(38-26-24-36(4)32-38)22-20-18-16-14-12-10-8-6-2;;/h23-26,31-34H,5-22,27-30H2,1-4H3;2*1H/q+2;;/p-2",MIMDCVFTAUWCDR-UHFFFAOYSA-L,750.293914248,0.0003999,3.39804859586648,,,,,,,25,gemini cationic,10.1063/5.0051623,,10.1002/9781119075691.ch43,,,,,,
,CCCCCCCCCCC(O)CCO,"InChI=1S/C13H28O2/c1-2-3-4-5-6-7-8-9-10-13(15)11-12-14/h13-15H,2-12H2,1H3",HVEUXCYPTJKWQE-UHFFFAOYSA-N,216.208930136,,,23.5,,,,,,,non-ionic,,10.1016/j.ces.2022.118208,,10.1002/0471670561,,,,,
"dodecane-1,2-diol",CCCCCCCCCCC(O)CO,"InChI=1S/C12H26O2/c1-2-3-4-5-6-7-8-9-10-12(14)11-13/h12-14H,2-11H2,1H3",ZITKDVFRMRXIJQ-UHFFFAOYSA-N,202.193280072,0.0001799,3.74496883665445,22.5,0.0000063,0.26,49.3,4.56,0.0000277,25,non-ionic,10.1021/ie4016232,10.1016/j.ces.2022.118208,,10.1002/0471670561,10.1002/9781118228920.ch5,10.1002/9781118228920.ch5,,,
"3,3′-(Octane-1,8-diyl)bis(1-(2-hydroxydodecyl)-1H-imidazol-3-ium)Bromide",CCCCCCCCCCC(O)Cn1cc[n+](CCCCCCCC[n+]2ccn(CC(O)CCCCCCCCCC)c2)c1.[Br-].[Br-],"InChI=1S/C38H72N4O2.2BrH/c1-3-5-7-9-11-13-17-21-25-37(43)33-41-31-29-39(35-41)27-23-19-15-16-20-24-28-40-30-32-42(36-40)34-38(44)26-22-18-14-12-10-8-6-4-2;;/h29-32,35-38,43-44H,3-28,33-34H2,1-2H3;2*1H/q+2;;/p-2",MRJWFRCAXNNHRD-UHFFFAOYSA-L,774.402201744,0.00114,2.94309514866353,37.6,0.0000019,0.87,34.37,3.58004425151024,0.000263,25,gemini cationic,10.1021/la300920p,10.1016/j.ces.2022.118208,,10.1021/la300920p,10.1021/la300920p,calculated,10.1021/la300920p,,10.1021/la300920p
"3,3′-(Hexane-1,6-diyl)bis(1-(2-hydroxydodecyl)-1H-imidazol-3-ium)Bromide",CCCCCCCCCCC(O)Cn1cc[n+](CCCCCC[n+]2ccn(CC(O)CCCCCCCCCC)c2)c1.[Br-].[Br-],"InChI=1S/C36H68N4O2.2BrH/c1-3-5-7-9-11-13-15-19-23-35(41)31-39-29-27-37(33-39)25-21-17-18-22-26-38-28-30-40(34-38)32-36(42)24-20-16-14-12-10-8-6-4-2;;/h27-30,33-36,41-42H,3-26,31-32H2,1-2H3;2*1H/q+2;;/p-2",UKOGJHJUVQPKQZ-UHFFFAOYSA-L,746.370901616,0.00107,2.97061622231479,35.2,0.00000352,0.55,36.77,3.44009337496389,0.000363,25,gemini cationic,10.1021/la300920p,10.1016/j.ces.2022.118208,,10.1021/la300920p,10.1021/la300920p,calculated,10.1021/la300920p,,10.1021/la300920p
"3,3′-(Pentane-1,5-diyl)bis(1-(2-hydroxydodecyl)-1H-imidazol-3-ium)Bromide",CCCCCCCCCCC(O)Cn1cc[n+](CCCCC[n+]2ccn(CC(O)CCCCCCCCCC)c2)c1.[Br-].[Br-],"InChI=1S/C35H66N4O2.2BrH/c1-3-5-7-9-11-13-15-18-22-34(40)30-38-28-26-36(32-38)24-20-17-21-25-37-27-29-39(33-37)31-35(41)23-19-16-14-12-10-8-6-4-2;;/h26-29,32-35,40-41H,3-25,30-31H2,1-2H3;2*1H/q+2;;/p-2",OPDRVUGOPSIAKY-UHFFFAOYSA-L,732.355251552,0.00102,2.99139982823808,32.9,0.00000329,0.72,39.07,3.72124639904717,0.00019,25,gemini cationic,10.1021/la300920p,10.1016/j.ces.2022.118208,,10.1021/la300920p,10.1021/la300920p,calculated,10.1021/la300920p,,10.1021/la300920p
"3,3′-(Butane-1,4-diyl)bis(1-(2-hydroxydodecyl)-1H-imidazol-3-ium)Bromide",CCCCCCCCCCC(O)Cn1cc[n+](CCCC[n+]2ccn(CC(O)CCCCCCCCCC)c2)c1.[Br-].[Br-],"InChI=1S/C34H64N4O2.2BrH/c1-3-5-7-9-11-13-15-17-21-33(39)29-37-27-25-35(31-37)23-19-20-24-36-26-28-38(32-36)30-34(40)22-18-16-14-12-10-8-6-4-2;;/h25-28,31-34,39-40H,3-24,29-30H2,1-2H3;2*1H/q+2;;/p-2",ACYPORRTJUWRHN-UHFFFAOYSA-L,718.339601488,0.00076,3.11918640771921,28.1,0.00000281,0.71,43.87,4.11350927482752,0.000077,25,gemini cationic,10.1021/la300920p,10.1016/j.ces.2022.118208,,10.1021/la300920p,10.1021/la300920p,calculated,10.1021/la300920p,,10.1021/la300920p
"3,3′-(Propane-1,3-diyl)bis(1-(2-hydroxydodecyl)-1H-imidazol-3-ium)Bromide",CCCCCCCCCCC(O)Cn1cc[n+](CCC[n+]2ccn(CC(O)CCCCCCCCCC)c2)c1.[Br-].[Br-],"InChI=1S/C33H62N4O2.2BrH/c1-3-5-7-9-11-13-15-17-20-32(38)28-36-26-24-34(30-36)22-19-23-35-25-27-37(31-35)29-33(39)21-18-16-14-12-10-8-6-4-2;;/h24-27,30-33,38-39H,3-23,28-29H2,1-2H3;2*1H/q+2;;/p-2",FDKHNKDGZMRXPM-UHFFFAOYSA-L,704.323951424,0.00072,3.14266750356873,30,0.00000253,0.65,41.97,3.9100948885606,0.000123,25,gemini cationic,10.1021/la300920p,10.1016/j.ces.2022.118208,,10.1021/la300920p,10.1021/la300920p,calculated,10.1021/la300920p,,10.1021/la300920p
N-(2-hydroxyheptyl)imidazolesbromide,CCCCCCCCCCC(O)Cn1cc[n+](CCO)c1.[Br-],"InChI=1S/C17H33N2O2.BrH/c1-2-3-4-5-6-7-8-9-10-17(21)15-19-12-11-18(16-19)13-14-20;/h11-12,16-17,20-21H,2-10,13-15H2,1H3;1H/q+1;/p-1",MFMTZXZQBQUWAN-UHFFFAOYSA-M,376.172540396,0.001021,2.99097425791309,28.3,0.00000213,0.78,44.07,3.91,0.000123,25,cationic,10.1016/j.colsurfa.2013.08.063,10.1016/j.ces.2022.118208,,10.1016/j.colsurfa.2013.08.063,10.1016/j.colsurfa.2013.08.063,10.1016/j.colsurfa.2013.08.063,10.1016/j.colsurfa.2013.08.063,,10.1016/j.colsurfa.2013.08.063
N-(2-hydroxyheptyl)imidazoleschloride,CCCCCCCCCCC(O)Cn1cc[n+](CCO)c1.[Cl-],"InChI=1S/C17H33N2O2.ClH/c1-2-3-4-5-6-7-8-9-10-17(21)15-19-12-11-18(16-19)13-14-20;/h11-12,16-17,20-21H,2-10,13-15H2,1H3;1H/q+1;/p-1",CZEOQWHNLNUIND-UHFFFAOYSA-M,332.223055976,0.00301,2.52143350440616,31.26,0.0000021,0.79,41.14,3.4,0.000398,25,cationic,10.1016/j.colsurfa.2013.08.063,10.1016/j.ces.2022.118208,,10.1016/j.colsurfa.2013.08.063,10.1016/j.colsurfa.2013.08.063,10.1016/j.colsurfa.2013.08.063,10.1016/j.colsurfa.2013.08.063,,10.1016/j.colsurfa.2013.08.063
,CCCCCCCCCCC(O)OCCOCCOCCOCCOCCOCCOCCOCC,"InChI=1S/C27H56O9/c1-3-5-6-7-8-9-10-11-12-27(28)36-26-25-35-24-23-34-22-21-33-20-19-32-18-17-31-16-15-30-14-13-29-4-2/h27-28H,3-26H2,1-2H3",BOUGECOICMAIBT-UHFFFAOYSA-N,524.392433372,0.0003,3.52287874528034,,,,,,,25,non-ionic,10.1002/9781118228920.ch3,,,,,,,,
,CCCCCCCCCCC(O)OCCc1ccc(S(=O)(=O)[O-])cc1.[Na+],"InChI=1S/C19H32O5S.Na/c1-2-3-4-5-6-7-8-9-10-19(20)24-16-15-17-11-13-18(14-12-17)25(21,22)23;/h11-14,19-20H,2-10,15-16H2,1H3,(H,21,22,23);/q;+1/p-1",SKYUYKWBPJEKQM-UHFFFAOYSA-M,394.178989372,0.01309,1.88306035344924,,,,,,,25,anionic,10.1021/ci600462d,,10.1006/jcis.1996.4680,,,,,,
,CCCCCCCCCCC(O)[C@H]1OC(O)[C@H](O)[C@@H](O)[C@@H]1O,"InChI=1S/C16H32O6/c1-2-3-4-5-6-7-8-9-10-11(17)15-13(19)12(18)14(20)16(21)22-15/h11-21H,2-10H2,1H3/t11?,12-,13-,14+,15+,16?/m0/s1",FHRJFMYCXKUHLQ-FWYQWXHNSA-N,320.219888744,0.002198,2.65797231191253,,,,,,,25,non-ionic,10.1021/ie4016232,,,,,,,,
,CCCCCCCCCCC1(C)OCC(C[N+](C)(C)C)O1.[Br-],"InChI=1S/C18H38NO2.BrH/c1-6-7-8-9-10-11-12-13-14-18(2)20-16-17(21-18)15-19(3,4)5;/h17H,6-16H2,1-5H3;1H/q+1;/p-1",NVZDOHXFYUMTEL-UHFFFAOYSA-M,379.208591556,0.00586,2.23210238398191,34.5,0.00000199,0.83,37.3,3.00228203499349,0.0496735820747212,25,cationic,10.1016/0927-7757(95)03093-S,10.1016/j.ces.2022.118208,,10.1016/0927-7757(95)03093-S,10.1016/0927-7757(95)03093-S,10.1016/0927-7757(95)03093-S,10.1016/0927-7757(95)03093-S,calculated,calculated
,CCCCCCCCCCC1OCC(C[N+](C)(C)C)O1.[Br-],"InChI=1S/C17H36NO2.BrH/c1-5-6-7-8-9-10-11-12-13-17-19-15-16(20-17)14-18(2,3)4;/h16-17H,5-15H2,1-4H3;1H/q+1;/p-1",AHQXQVPNODNCMB-UHFFFAOYSA-M,365.192941492,0.00302,2.51999305704285,30.77,0.00000169,0.98,41.2,3.62018980571714,0.0267775934699283,25,cationic,10.1016/0927-7757(95)03093-S,calculated,,,10.1016/0927-7757(95)03093-S,10.1016/0927-7757(95)03093-S,10.1016/0927-7757(95)03093-S,calculated,calculated
sodium-dodec-1-ene-1-sulfonate,CCCCCCCCCCC=CS(=O)(=O)[O-].[Na+],"InChI=1S/C12H24O3S.Na/c1-2-3-4-5-6-7-8-9-10-11-12-16(13,14)15;/h11-12H,2-10H2,1H3,(H,13,14,15);/q;+1/p-1",PDAVKVAAXOOLCM-UHFFFAOYSA-M,270.126559876,0.013,1.88605664769316,,,,,,,25,anionic,10.1021/ci600462d,,,,,,,,
N-Dodecanoyl-N-methylglycine,CCCCCCCCCCCC(=O)N(C)CC(=O)O,"InChI=1S/C15H29NO3/c1-3-4-5-6-7-8-9-10-11-12-14(17)16(2)13-15(18)19/h3-13H2,1-2H3,(H,18,19)",BACYUWVYYTXETD-UHFFFAOYSA-N,271.214743788,0.000234,3.63078414258986,26.1,0.00000434,0.38,45.87,4.67,0.0000214,25,sugar-based non-ionic,10.1021/acs.iecr.6b02890,10.1007/s11743-999-0089-0,10.1007/s11743-999-0089-0,,10.1007/s11743-999-0089-0,calculated,10.1007/s11743-999-0089-0,,
sodium-2-[dodecanoyl(methyl)amino]acetate,CCCCCCCCCCCC(=O)N(C)CC(=O)[O-].[Na+],"InChI=1S/C15H29NO3.Na/c1-3-4-5-6-7-8-9-10-11-12-14(17)16(2)13-15(18)19;/h3-13H2,1-2H3,(H,18,19);/q;+1/p-1",KSAVQLQVUXSOCR-UHFFFAOYSA-M,293.196688036,0.0132,1.87942606879415,35.2,0.00000155,1.07,36.8,2.85,0.00142,25,anionic,10.1021/acsomega.8b00718,,,,10.1002/9781118228920.ch5,10.1002/9781118228920.ch5,,,
"N-(2,3-dihydroxypropyl)-N-methyldodecanamide",CCCCCCCCCCCC(=O)N(C)CC(O)CO,"InChI=1S/C16H33NO3/c1-3-4-5-6-7-8-9-10-11-12-16(20)17(2)13-15(19)14-18/h15,18-19H,3-14H2,1-2H3",OWHFHZRZRDFRJX-UHFFFAOYSA-N,287.246043916,0.00023,3.63827216398241,38.1,0.00000414,0.4,33.9,3.29,0.00005,25,sugar-based non-ionic,10.1021/acs.jpcb.1c05264,,10.1002/9781118228920,10.1006/jcis.2001.7704,10.1006/jcis.2001.7704,10.1006/jcis.2001.7704,10.1006/jcis.2001.7704,10.1006/jcis.2001.7704,
"N,N-bis(2-hydroxyethyl)dodecanamide",CCCCCCCCCCCC(=O)N(CCO)CCO,"InChI=1S/C16H33NO3/c1-2-3-4-5-6-7-8-9-10-11-16(20)17(12-14-18)13-15-19/h18-19H,2-15H2,1H3",AOMUHOFOVNGZAN-UHFFFAOYSA-N,287.246043916,0.000264,3.57839607313017,34.7,0.00000375,0.44,37.1,4.38,0.0000419,25,non-ionic,10.1021/acs.jpcb.1c05264,10.1016/j.ces.2022.118208,10.1002/9781118228920,10.1002/0471670561,10.1002/9781118228920.ch3,10.1002/9781118228920.ch3,,,