IUPAC_name,SMILES,InChI,InChIKey,Molecular_Weight,CMC,pCMC,AW_ST_CMC,Gamma_max,Area_min,Pi_CMC,PC20,C20,Temp_Celsius,Surfactant_Type,Ref_CMC,Ref_AW_ST_CMC,SubRef_CMC,SubRef_AW_ST_CMC,Ref_Gamma_max,Ref_Pi_CMC,Ref_Area_min,Ref_PC20,Ref_C20
"butyl-[2-[2-[butyl(dimethyl)azaniumyl]ethoxy]ethyl]-dimethylazanium,dibromide",CCCCCC[N+](C)(C)CCOCC[N+](C)(C)CCCCCC.[Br-].[Br-],"InChI=1S/C20H46N2O.2BrH/c1-7-9-11-13-15-21(3,4)17-19-23-20-18-22(5,6)16-14-12-10-8-2;;/h7-20H2,1-6H3;2*1H/q+2;;/p-2",IMHZMIYNZYBQBA-UHFFFAOYSA-L,488.197688292,0.0811,1.09097914578884,,,,,,,25,gemini cationic,10.1016/j.crci.2019.04.002,,,,,,,,
"N,N'-bis(hexyldimethyl)-3-S-1,5-pentanediammoniumdibromide",CCCCCC[N+](C)(C)CCSCC[N+](C)(C)CCCCCC.[Br-].[Br-],"InChI=1S/C20H46N2S.2BrH/c1-7-9-11-13-15-21(3,4)17-19-23-20-18-22(5,6)16-14-12-10-8-2;;/h7-20H2,1-6H3;2*1H/q+2;;/p-2",TWWWZZXHSACEON-UHFFFAOYSA-L,504.174844672,0.061,1.21467016498923,28.7,0.00000211,0.79,43.3,1.85941708222605,0.155763401164542,25,gemini cationic,"['10.1016/j.chemosphere.2011.05.031', '10.1016/0021-9797(86)90417-0', '10.1016/0021-9797(86)90417-0']",10.1016/j.ces.2022.118208,,10.1016/0021-9797(86)90417-0,10.1016/0021-9797(86)90417-0,,,calculated,calculated
"3,3′-(((2-(2-((1-hexylpyridin-1-ium-3-yl)methoxy)-2-oxoethyl)-2-hydroxysuccinyl)bis(oxy))bis(methylene))bis(1-hexylpyridin-1-ium)bromide",CCCCCC[n+]1cccc(COC(=O)CC(O)(CC(=O)OCc2ccc[n+](CCCCCC)c2)C(=O)OCc2ccc[n+](CCCCCC)c2)c1.[Br-].[Br-].[Br-],"InChI=1S/C42H62N3O7.3BrH/c1-4-7-10-13-22-43-25-16-19-36(30-43)33-50-39(46)28-42(49,41(48)52-35-38-21-18-27-45(32-38)24-15-12-9-6-3)29-40(47)51-34-37-20-17-26-44(31-37)23-14-11-8-5-2;;;/h16-21,25-27,30-32,49H,4-15,22-24,28-29,33-35H2,1-3H3;3*1H/q+3;;;/p-3",QRDBSAQATCPSPY-UHFFFAOYSA-K,957.213787624,0.000646,3.18976748200492,32.5,0.000000701,2.37,39.8,6.06,0.000000871,25,gemini cationic,10.1016/j.molliq.2020.112817,10.1016/j.ces.2022.118208,,10.1016/j.molliq.2020.112817,10.1016/j.molliq.2020.112817,10.1016/j.molliq.2020.112817,10.1016/j.molliq.2020.112817,10.1016/j.molliq.2020.112817,
,CCCCCC[n+]1ccccc1.[Cl-],"InChI=1S/C11H18N.ClH/c1-2-3-4-6-9-12-10-7-5-8-11-12;/h5,7-8,10-11H,2-4,6,9H2,1H3;1H/q+1;/p-1",JEOSMYVMLZTQOH-UHFFFAOYSA-M,199.112777256,,,36.4,,,,,,,cationic,,10.1016/j.ces.2022.118208,,10.1016/j.jcis.2011.12.077,,,,,
,CCCCCCn1cc[n+](COCCCCCCOC[n+]2ccn(CCCCCC)c2)c1.[Cl-].[Cl-],"InChI=1S/C26H48N4O2.2ClH/c1-3-5-7-11-15-27-17-19-29(23-27)25-31-21-13-9-10-14-22-32-26-30-20-18-28(24-30)16-12-8-6-4-2;;/h17-20,23-24H,3-16,21-22,25-26H2,1-2H3;2*1H/q+2;;/p-2",RZFCPBOCUAVUHS-UHFFFAOYSA-L,518.315432136,0.001949844599758,2.71000000000001,36.3,0.00000241,0.71,35.7,3.09036313513623,0.0454854340459532,25,gemini cationic,10.1111/cbdd.12236,10.1111/cbdd.12236,10.1111/cbdd.12236,,10.1111/cbdd.12236,10.1111/cbdd.12236,10.1111/cbdd.12236,calculated,calculated
,CCCCCCn1cc[n+](COCCCCCOC[n+]2ccn(CCCCCC)c2)c1.[Cl-].[Cl-],"InChI=1S/C25H46N4O2.2ClH/c1-3-5-7-10-14-26-16-18-28(22-26)24-30-20-12-9-13-21-31-25-29-19-17-27(23-29)15-11-8-6-4-2;;/h16-19,22-23H,3-15,20-21,24-25H2,1-2H3;2*1H/q+2;;/p-2",GWCIDWSZXQKEMJ-UHFFFAOYSA-L,504.299782072,0.0021379620895022,2.67000000000001,50.1,0.00000248,0.68,21.9,2.71473193948503,0.0662227023197088,25,gemini cationic,10.1111/cbdd.12236,10.1111/cbdd.12236,10.1111/cbdd.12236,,10.1111/cbdd.12236,10.1111/cbdd.12236,10.1111/cbdd.12236,calculated,calculated
,CCCCCCn1cc[n+](COCCCCOC[n+]2ccn(CCCCCC)c2)c1.[Cl-].[Cl-],"InChI=1S/C24H44N4O2.2ClH/c1-3-5-7-9-13-25-15-17-27(21-25)23-29-19-11-12-20-30-24-28-18-16-26(22-28)14-10-8-6-4-2;;/h15-18,21-22H,3-14,19-20,23-24H2,1-2H3;2*1H/q+2;;/p-2",AUCFRJWOXBGUAK-UHFFFAOYSA-L,490.284132008,0.0022908676527677,2.64000000000001,51.1,0.00000251,0.66,20.9,2.66093556069,0.0698828115404342,25,gemini cationic,10.1111/cbdd.12236,10.1111/cbdd.12236,10.1111/cbdd.12236,,10.1111/cbdd.12236,10.1111/cbdd.12236,10.1111/cbdd.12236,calculated,calculated
,CCCCCCn1cc[n+](COCCCOC[n+]2ccn(CCCCCC)c2)c1.[Cl-].[Cl-],"InChI=1S/C23H42N4O2.2ClH/c1-3-5-7-9-12-24-14-16-26(20-24)22-28-18-11-19-29-23-27-17-15-25(21-27)13-10-8-6-4-2;;/h14-17,20-21H,3-13,18-19,22-23H2,1-2H3;2*1H/q+2;;/p-2",INVVMGURGKYZGW-UHFFFAOYSA-L,476.268481944,0.002454708915685,2.61000000000001,52.3,0.00000254,0.64,19.7,2.60310390323729,0.0740433976284028,25,gemini cationic,10.1111/cbdd.12236,10.1111/cbdd.12236,10.1111/cbdd.12236,,10.1111/cbdd.12236,10.1111/cbdd.12236,10.1111/cbdd.12236,calculated,calculated
,CCCCCCn1cc[n+](COCCOC[n+]2ccn(CCCCCC)c2)c1.[Cl-].[Cl-],"InChI=1S/C22H40N4O2.2ClH/c1-3-5-7-9-11-23-13-15-25(19-23)21-27-17-18-28-22-26-16-14-24(20-26)12-10-8-6-4-2;;/h13-16,19-20H,3-12,17-18,21-22H2,1-2H3;2*1H/q+2;;/p-2",ADOXHQYKHFGIJL-UHFFFAOYSA-L,462.25283188,0.0026302679918953,2.58000000000001,53.4,0.00000257,0.62,19.9,2.54819387796602,0.0782228184494704,25,gemini cationic,10.1111/cbdd.12236,10.1111/cbdd.12236,10.1111/cbdd.12236,,10.1111/cbdd.12236,10.1111/cbdd.12236,10.1111/cbdd.12236,calculated,calculated
"1-O-pentanoyl-D,L-xylitol",CCCCCOC(=O)C([C@@H](O)C(O)[C@@H](O)CO)[C@@H](O)CO,"InChI=1S/C13H26O8/c1-2-3-4-5-21-13(20)10(8(16)6-14)12(19)11(18)9(17)7-15/h8-12,14-19H,2-7H2,1H3/t8-,9-,10?,11?,12+/m0/s1",PSEMGHOBJYBSGB-KCULMAPZSA-N,310.162767792,0.12,0.920818753952375,30,,,41.97,,,25,sugar-based non-ionic,10.1021/acs.iecr.6b02890,10.1016/j.jcis.2018.01.051,10.1016/j.molliq.2018.01.037,,,calculated,,,
"sodium-1,4-dioxo-1,4-dipentoxybutane-2-sulfonate",CCCCCOC(=O)CC(C(=O)OCCCCC)S(=O)(=O)[O-].[Na+],"InChI=1S/C14H26O7S.Na/c1-3-5-7-9-20-13(15)11-12(22(17,18)19)14(16)21-10-8-6-4-2;/h12H,3-11H2,1-2H3,(H,17,18,19);/q;+1/p-1",UMEWSJNRBXKWKZ-UHFFFAOYSA-M,360.12186842,0.053,1.27572413039921,,,,,,,25,anionic,10.1021/acs.jpcb.1c05264,,10.1002/9781118228920,,,,,,
1-O-pentyl-D-L-xylitol,CCCCCOC([C@@H](O)C(O)[C@@H](O)CO)[C@@H](O)CO,"InChI=1S/C12H26O7/c1-2-3-4-5-19-12(9(16)7-14)11(18)10(17)8(15)6-13/h8-18H,2-7H2,1H3/t8-,9-,10?,11-,12?/m0/s1",JADUAINFTCXVKL-YJDKOSLUSA-N,282.167853172,0.038,1.42021640338319,,,,,,,25,sugar-based non-ionic,10.1021/acs.iecr.6b02890,,10.1016/j.molliq.2018.01.037,,,,,,
,CCCCCOC1[CH][C@H](O)[C@@H](O)C(O)O1,"InChI=1S/C10H19O5/c1-2-3-4-5-14-8-6-7(11)9(12)10(13)15-8/h6-13H,2-5H2,1H3/t7-,8?,9+,10?/m0/s1",XTRHYGHEHQPBSH-QGVKSAJWSA-N,219.123248708,0.03802,1.41998788747058,,,,,,,25,non-ionic,10.1021/ie4016232,,,,,,,,
,CCCCCOCCOCCOCCOCCOCCOCCO,"InChI=1S/C17H36O7/c1-2-3-4-6-19-8-10-21-12-14-23-16-17-24-15-13-22-11-9-20-7-5-18/h18H,2-17H2,1H3",CZCNKIPWHIURMJ-UHFFFAOYSA-N,352.246103492,,,34.3,,,,,,,non-ionic,,10.1016/j.ces.2022.118208,,10.1007/BF01500880,,,,,
,CCCCCOCOC1[CH][C@H](O)[C@@H](O)C(O)O1,"InChI=1S/C11H21O6/c1-2-3-4-5-15-7-16-9-6-8(12)10(13)11(14)17-9/h6,8-14H,2-5,7H2,1H3/t8-,9?,10+,11?/m0/s1",ZZUJSAMBMCNXDF-QPBDYMMBSA-N,249.133813392,0.05794,1.23702150913226,,,,,,,25,non-ionic,10.1021/ie4016232,,,,,,,,
S-pentyl-1-thio-D-L-xylitol,CCCCCSC([C@@H](O)C(O)[C@@H](O)CO)[C@@H](O)CO,"InChI=1S/C12H26O6S/c1-2-3-4-5-19-12(9(16)7-14)11(18)10(17)8(15)6-13/h8-18H,2-7H2,1H3/t8-,9-,10?,11-,12?/m0/s1",ILMIGYOKNXIUEA-YJDKOSLUSA-N,298.145009552,0.046,1.33724216831843,,,,,,,25,sugar-based non-ionic,10.1021/acs.iecr.6b02890,,10.1016/j.molliq.2018.01.037,,,,,,
,CCCCCSC1[CH][C@H](O)[C@@H](O)C(O)O1,"InChI=1S/C10H19O4S/c1-2-3-4-5-15-8-6-7(11)9(12)10(13)14-8/h6-13H,2-5H2,1H3/t7-,8?,9+,10?/m0/s1",SFXRQCBHSVXWGJ-QGVKSAJWSA-N,235.100405088,0.04603,1.33695902510603,,,,,,,25,non-ionic,10.1021/ie4016232,,,,,,,,
,CCCCCc1ccc(C[C@H](Nc2ccc(S(=O)(=O)[O-])cc2)C(=O)O)cc1.[Na+],"InChI=1S/C20H25NO5S.Na/c1-2-3-4-5-15-6-8-16(9-7-15)14-19(20(22)23)21-17-10-12-18(13-11-17)27(24,25)26;/h6-13,19,21H,2-5,14H2,1H3,(H,22,23)(H,24,25,26);/q;+1/p-1/t19-;/m0./s1",QNEDORZCARSQIG-FYZYNONXSA-M,413.127288148,0.014,1.85387196432176,,,,,,,25,anionic,10.1021/ci600462d,,,,,,,,
,CCCCCn1cc[n+](COCCCCCCOC[n+]2ccn(CCCCC)c2)c1.[Cl-].[Cl-],"InChI=1S/C24H44N4O2.2ClH/c1-3-5-9-13-25-15-17-27(21-25)23-29-19-11-7-8-12-20-30-24-28-18-16-26(22-28)14-10-6-4-2;;/h15-18,21-22H,3-14,19-20,23-24H2,1-2H3;2*1H/q+2;;/p-2",GIAKWFVRHKJPFE-UHFFFAOYSA-L,490.284132008,0.0023988329190194,2.62000000000002,37.6,0.00000247,0.68,34.4,2.96039356976116,0.0517985268266458,25,gemini cationic,10.1111/cbdd.12236,10.1111/cbdd.12236,10.1111/cbdd.12236,,10.1111/cbdd.12236,10.1111/cbdd.12236,10.1111/cbdd.12236,calculated,calculated
,CCCCCn1cc[n+](COCCCCCOC[n+]2ccn(CCCCC)c2)c1.[Cl-].[Cl-],"InChI=1S/C23H42N4O2.2ClH/c1-3-5-8-12-24-14-16-26(20-24)22-28-18-10-7-11-19-29-23-27-17-15-25(21-27)13-9-6-4-2;;/h14-17,20-21H,3-13,18-19,22-23H2,1-2H3;2*1H/q+2;;/p-2",YDVKSYSYUJTQQS-UHFFFAOYSA-L,476.268481944,0.0026302679918953,2.58000000000001,52.1,0.00000252,0.66,18.6,2.57768305743688,0.0759497715809825,25,gemini cationic,10.1111/cbdd.12236,10.1111/cbdd.12236,10.1111/cbdd.12236,,10.1111/cbdd.12236,10.1111/cbdd.12236,10.1111/cbdd.12236,calculated,calculated
,CCCCCn1cc[n+](COCCCCOC[n+]2ccn(CCCCC)c2)c1.[Cl-].[Cl-],"InChI=1S/C22H40N4O2.2ClH/c1-3-5-7-11-23-13-15-25(19-23)21-27-17-9-10-18-28-22-26-16-14-24(20-26)12-8-6-4-2;;/h13-16,19-20H,3-12,17-18,21-22H2,1-2H3;2*1H/q+2;;/p-2",XEINVCGJHWMNOX-UHFFFAOYSA-L,462.25283188,0.0029512092266663,2.53000000000001,53.2,0.00000255,0.64,18.8,2.50252378701603,0.0818780947706134,25,gemini cationic,10.1111/cbdd.12236,10.1111/cbdd.12236,10.1111/cbdd.12236,,10.1111/cbdd.12236,10.1111/cbdd.12236,10.1111/cbdd.12236,calculated,calculated
,CCCCCn1cc[n+](COCCCOC[n+]2ccn(CCCCC)c2)c1.[Cl-].[Cl-],"InChI=1S/C21H38N4O2.2ClH/c1-3-5-7-10-22-12-14-24(18-22)20-26-16-9-17-27-21-25-15-13-23(19-25)11-8-6-4-2;;/h12-15,18-19H,3-11,16-17,20-21H2,1-2H3;2*1H/q+2;;/p-2",RMWJUURZDWGVOP-UHFFFAOYSA-L,448.237181816,0.003019951720402,2.52,54.4,0.00000258,0.62,17.6,2.46568655572933,0.084950499094173,25,gemini cationic,10.1111/cbdd.12236,10.1111/cbdd.12236,10.1111/cbdd.12236,,10.1111/cbdd.12236,10.1111/cbdd.12236,10.1111/cbdd.12236,calculated,calculated
,CCCCCn1cc[n+](COCCOC[n+]2ccn(CCCCC)c2)c1.[Cl-].[Cl-],"InChI=1S/C20H36N4O2.2ClH/c1-3-5-7-9-21-11-13-23(17-21)19-25-15-16-26-20-24-14-12-22(18-24)10-8-6-4-2;;/h11-14,17-18H,3-10,15-16,19-20H2,1-2H3;2*1H/q+2;;/p-2",GGQHXPOVEIXIBH-UHFFFAOYSA-L,434.221531752,0.0032359365692962,2.49000000000001,55.5,0.00000261,0.6,18.1,2.41170332028032,0.0896624405761323,25,gemini cationic,10.1111/cbdd.12236,10.1111/cbdd.12236,10.1111/cbdd.12236,,10.1111/cbdd.12236,10.1111/cbdd.12236,10.1111/cbdd.12236,calculated,calculated
"sodium-1,4-dibutoxy-1,4-dioxobutane-2-sulfonate",CCCCOC(=O)CC(C(=O)OCCCC)S(=O)(=O)[O-].[Na+],"InChI=1S/C12H22O7S.Na/c1-3-5-7-18-11(13)9-10(20(15,16)17)12(14)19-8-6-4-2;/h10H,3-9H2,1-2H3,(H,15,16,17);/q;+1/p-1",JLABKOUORPVZCA-UHFFFAOYSA-M,332.090568292,0.2,0.698970004336019,,,,,,,25,anionic,10.1021/acs.jpcb.1c05264,,10.1002/9781118228920,,,,,,
1-O-butyl-D-L-xylitol,CCCCOC([C@@H](O)C(O)[C@@H](O)CO)[C@@H](O)CO,"InChI=1S/C11H24O7/c1-2-3-4-18-11(8(15)6-13)10(17)9(16)7(14)5-12/h7-17H,2-6H2,1H3/t7-,8-,9?,10-,11?/m0/s1",OKGFEDAFKIUHFQ-LUZJOVDZSA-N,268.152203108,0.058,1.23657200643706,,,,,,,25,sugar-based non-ionic,10.1021/acs.iecr.6b02890,,10.1016/j.molliq.2018.01.037,,,,,,
,CCCCOC1[CH][C@H](O)[C@@H](O)C(O)O1,"InChI=1S/C9H17O5/c1-2-3-4-13-7-5-6(10)8(11)9(12)14-7/h5-12H,2-4H2,1H3/t6-,7?,8+,9?/m0/s1",GHGSEPUWBNBOBK-YRXIUSAGSA-N,205.107598644,0.05794,1.23702150913226,,,,,,,25,non-ionic,10.1021/ie4016232,,,,,,,,
,CCCCOCOC1[CH][C@H](O)[C@@H](O)C(O)O1,"InChI=1S/C10H19O6/c1-2-3-4-14-6-15-8-5-7(11)9(12)10(13)16-8/h5,7-13H,2-4,6H2,1H3/t7-,8?,9+,10?/m0/s1",UJDMIWJYQKOGSP-QGVKSAJWSA-N,235.118163328,0.1199,0.921180816901151,,,,,,,25,non-ionic,10.1021/ie4016232,,,,,,,,
1-ethylperoxybutane,CCCCOOCC,"InChI=1S/C6H14O2/c1-3-5-6-8-7-4-2/h3-6H2,1-2H3",OZCXMZAXJKGAIW-UHFFFAOYSA-N,118.099379688,0.9795,0.00899555966924482,,,,,,,25,non-ionic,10.1021/ie4016232,,,,,,,,
,CCCCOOCCOCCOCCOCCOCCOCC,"InChI=1S/C16H34O7/c1-3-5-6-22-23-16-15-21-14-13-20-12-11-19-10-9-18-8-7-17-4-2/h3-16H2,1-2H3",NHNPHBUGWKHDEM-UHFFFAOYSA-N,338.230453428,0.7762,0.110026361596004,,,,,,,25,non-ionic,10.1021/ie4016232,,,,,,,,
S-butyl-1-thio-D-L-xylitol,CCCCSC([C@@H](O)C(O)[C@@H](O)CO)[C@@H](O)CO,"InChI=1S/C11H24O6S/c1-2-3-4-18-11(8(15)6-13)10(17)9(16)7(14)5-12/h7-17H,2-6H2,1H3/t7-,8-,9?,10-,11?/m0/s1",OVMAXAFAWSAZQJ-LUZJOVDZSA-N,284.129359488,0.18,0.744727494896694,,,,,,,25,sugar-based non-ionic,10.1021/acs.iecr.6b02890,,10.1016/j.molliq.2018.01.037,,,,,,
,CCCCSC1[CH][C@H](O)[C@@H](O)C(O)O1,"InChI=1S/C9H17O4S/c1-2-3-4-14-7-5-6(10)8(11)9(12)13-7/h5-12H,2-4H2,1H3/t6-,7?,8+,9?/m0/s1",YGPZEUNKOMWKAP-YRXIUSAGSA-N,221.084755024,0.1799,0.744968836654449,,,,,,,25,non-ionic,10.1021/ie4016232,,,,,,,,
,CCCC[N+](C)(C)CCOCC[N+](C)(C)CCCC.[Br-].[Br-],"InChI=1S/C16H38N2O.2BrH/c1-7-9-11-17(3,4)13-15-19-16-14-18(5,6)12-10-8-2;;/h7-16H2,1-6H3;2*1H/q+2;;/p-2",NXMGHXWDIYVXFB-UHFFFAOYSA-L,432.135088036,0.1585,0.79997073344623,,,,,,,25,gemini cationic,10.1016/j.crci.2019.04.002,,,,,,,,
,CCCC[Si](O)C[Si](C)(CCCSCCCOCCOCCOCCOCCOCCOCCOCCOCCOCCOCCOCCOCCOCCOCCOCCOCCOCCOCCOCCOCCOCCOCCOCCOCCOCCOCCOCCOC(C)COC(C)COC(C)COC(C)COC(C)COC(C)CO)C[Si](O)CCCC,"InChI=1S/C89H184O36SSi3/c1-10-12-73-127(91)82-129(9,83-128(92)74-13-11-2)75-15-72-126-71-14-16-93-17-18-94-19-20-95-21-22-96-23-24-97-25-26-98-27-28-99-29-30-100-31-32-101-33-34-102-35-36-103-37-38-104-39-40-105-41-42-106-43-44-107-45-46-108-47-48-109-49-50-110-51-52-111-53-54-112-55-56-113-57-58-114-59-60-115-61-62-116-63-64-117-65-66-118-67-68-119-69-70-120-85(4)77-122-87(6)79-124-89(8)81-125-88(7)80-123-86(5)78-121-84(3)76-90/h84-92H,10-83H2,1-9H3",LEDWKTOZRQNBQN-UHFFFAOYSA-N,1945.159582798,0.0000646,4.18976748200492,37.9,0.00000199,0.84,34.6,5.42,0.00000382,25,non-ionic,10.1021/acs.jpcb.8b10727,10.1021/acs.jpcb.8b10727,,10.1021/acs.jpcb.8b10727,10.1021/acs.jpcb.8b10727,10.1021/acs.jpcb.8b10727,10.1021/acs.jpcb.8b10727,10.1021/acs.jpcb.8b10727,
,CCCC[n+]1ccccc1.[Cl-],"InChI=1S/C9H14N.ClH/c1-2-3-7-10-8-5-4-6-9-10;/h4-6,8-9H,2-3,7H2,1H3;1H/q+1;/p-1",POKOASTYJWUQJG-UHFFFAOYSA-M,171.081477128,,,51.1,,,,,,,cationic,,10.1016/j.ces.2022.118208,,10.1016/j.jcis.2011.12.077,,,,,
,CCCCn1cc[n+](COCCCCCCOC[n+]2ccn(CCCC)c2)c1.[Cl-].[Cl-],"InChI=1S/C22H40N4O2.2ClH/c1-3-5-11-23-13-15-25(19-23)21-27-17-9-7-8-10-18-28-22-26-16-14-24(20-26)12-6-4-2;;/h13-16,19-20H,3-12,17-18,21-22H2,1-2H3;2*1H/q+2;;/p-2",HLDKCXWFKPRJHZ-UHFFFAOYSA-L,462.25283188,0.0028840315031266,2.54,39.4,0.00000253,0.65,32.6,2.83078087061117,0.0589667902534605,25,gemini cationic,10.1111/cbdd.12236,10.1111/cbdd.12236,10.1111/cbdd.12236,,10.1111/cbdd.12236,10.1111/cbdd.12236,10.1111/cbdd.12236,calculated,calculated
,CCCCn1cc[n+](COCCCCCOC[n+]2ccn(CCCC)c2)c1.[Cl-].[Cl-],"InChI=1S/C21H38N4O2.2ClH/c1-3-5-10-22-12-14-24(18-22)20-26-16-8-7-9-17-27-21-25-15-13-23(19-25)11-6-4-2;;/h12-15,18-19H,3-11,16-17,20-21H2,1-2H3;2*1H/q+2;;/p-2",QMEVHKCLKZWIDW-UHFFFAOYSA-L,448.237181816,0.0032359365692962,2.49000000000001,53.9,0.00000256,0.64,16.5,2.4466659336239,0.0865817751977572,25,gemini cationic,10.1111/cbdd.12236,10.1111/cbdd.12236,10.1111/cbdd.12236,,10.1111/cbdd.12236,10.1111/cbdd.12236,10.1111/cbdd.12236,calculated,calculated
,CCCCn1cc[n+](COCCCCOC[n+]2ccn(CCCC)c2)c1.[Cl-].[Cl-],"InChI=1S/C20H36N4O2.2ClH/c1-3-5-9-21-11-13-23(17-21)19-25-15-7-8-16-26-20-24-14-12-22(18-24)10-6-4-2;;/h11-14,17-18H,3-10,15-16,19-20H2,1-2H3;2*1H/q+2;;/p-2",DPZYALSUBPPDPL-UHFFFAOYSA-L,434.221531752,0.0035481338923357,2.45000000000001,55.1,0.00000259,0.62,16.87,2.38011600269035,0.092539842017044,25,gemini cationic,10.1111/cbdd.12236,10.1111/cbdd.12236,10.1002/9781119075691.ch43,,10.1111/cbdd.12236,calculated,10.1111/cbdd.12236,calculated,calculated
,CCCCn1cc[n+](COCCCOC[n+]2ccn(CCCC)c2)c1.[Cl-].[Cl-],"InChI=1S/C19H34N4O2.2ClH/c1-3-5-8-20-10-12-22(16-20)18-24-14-7-15-25-19-23-13-11-21(17-23)9-6-4-2;;/h10-13,16-17H,3-9,14-15,18-19H2,1-2H3;2*1H/q+2;;/p-2",JHLSMPPJIBVWCR-UHFFFAOYSA-L,420.205881688,0.003630780547701,2.44,56.3,0.00000262,0.6,15.7,2.3441740854423,0.0959263964294137,25,gemini cationic,10.1111/cbdd.12236,10.1111/cbdd.12236,10.1111/cbdd.12236,,10.1111/cbdd.12236,10.1111/cbdd.12236,10.1111/cbdd.12236,calculated,calculated
,CCCCn1cc[n+](COCCOC[n+]2ccn(CCCC)c2)c1.[Cl-].[Cl-],"InChI=1S/C18H32N4O2.2ClH/c1-3-5-7-19-9-11-21(15-19)17-23-13-14-24-18-22-12-10-20(16-22)8-6-4-2;;/h9-12,15-16H,3-8,13-14,17-18H2,1-2H3;2*1H/q+2;;/p-2",ZXTAFFWTBDIOHV-UHFFFAOYSA-L,406.190231624,0.0038904514499428,2.41,57.4,0.00000265,0.58,14.6,2.29102281358821,0.10116293809245,25,gemini cationic,10.1111/cbdd.12236,10.1111/cbdd.12236,10.1111/cbdd.12236,,10.1111/cbdd.12236,10.1111/cbdd.12236,10.1111/cbdd.12236,calculated,calculated
,CCCOCCOC(=O)C(N)CCC(F)(F)C(F)(F)C(F)(F)C(F)(F)C(F)(F)C(F)(F)C(F)(F)C(F)(F)F,"InChI=1S/C17H18F17NO3/c1-2-5-37-6-7-38-9(36)8(35)3-4-10(18,19)11(20,21)12(22,23)13(24,25)14(26,27)15(28,29)16(30,31)17(32,33)34/h8H,2-7,35H2,1H3",WJLKAXYQQVNPBX-UHFFFAOYSA-N,607.101523176,0.00002399,4.61996975203217,,,,,,,25,non-ionic,10.1021/ie4016232,,,,,,,,
,CCCOCCOC(=O)C(N)CCC(F)(F)C(F)(F)C(F)(F)C(F)(F)C(F)(F)C(F)(F)F,"InChI=1S/C15H18F13NO3/c1-2-5-31-6-7-32-9(30)8(29)3-4-10(16,17)11(18,19)12(20,21)13(22,23)14(24,25)15(26,27)28/h8H,2-7,29H2,1H3",LQTDTQHKXSDCNK-UHFFFAOYSA-N,507.107910296,0.00015,3.82390874094432,,,,,,,25,non-ionic,10.1021/ie4016232,,,,,,,,
,CCCOCCOC(=O)C(N)CCC(F)(F)C(F)(F)C(F)(F)C(F)(F)F,"InChI=1S/C13H18F9NO3/c1-2-5-25-6-7-26-9(24)8(23)3-4-10(14,15)11(16,17)12(18,19)13(20,21)22/h8H,2-7,23H2,1H3",UMRCFBTWPYLEND-UHFFFAOYSA-N,407.114297416,0.009795,2.00899555966925,,,,,,,25,non-ionic,10.1021/ie4016232,,,,,,,,
,CCCOCCOCCOC(=O)C(N)CCC(F)(F)C(F)(F)C(F)(F)C(F)(F)C(F)(F)C(F)(F)C(F)(F)C(F)(F)F,"InChI=1S/C19H22F17NO4/c1-2-5-39-6-7-40-8-9-41-11(38)10(37)3-4-12(20,21)13(22,23)14(24,25)15(26,27)16(28,29)17(30,31)18(32,33)19(34,35)36/h10H,2-9,37H2,1H3",UOKYYWAKJSJXHP-UHFFFAOYSA-N,651.127737924,0.00001099,4.95900230757651,,,,,,,25,non-ionic,10.1021/ie4016232,,,,,,,,
,CCCOCCOCCOC(=O)C(N)CCC(F)(F)C(F)(F)C(F)(F)C(F)(F)C(F)(F)C(F)(F)F,"InChI=1S/C17H22F13NO4/c1-2-5-33-6-7-34-8-9-35-11(32)10(31)3-4-12(18,19)13(20,21)14(22,23)15(24,25)16(26,27)17(28,29)30/h10H,2-9,31H2,1H3",QEUDXYQRHICBMV-UHFFFAOYSA-N,551.134125044,0.00008995,4.04599883231843,,,,,,,25,non-ionic,10.1021/ie4016232,,,,,,,,
,CCCOCCOCCOC(=O)C(N)CCC(F)(F)C(F)(F)C(F)(F)C(F)(F)F,"InChI=1S/C15H22F9NO4/c1-2-5-27-6-7-28-8-9-29-11(26)10(25)3-4-12(16,17)13(18,19)14(20,21)15(22,23)24/h10H,2-9,25H2,1H3",DBHIZXBLUNJVKN-UHFFFAOYSA-N,451.140512164,0.0014,2.85387196432176,,,,,,,25,non-ionic,10.1021/ie4016232,,,,,,,,
,CCC[Si](O)C[Si](C)(CCCSCCCOCCOCCOCCOCCOCCOCCOCCOCCOCCOCCOCCOCCOCCOCCOCCOCCOCCOCCOCCOCCOCCOCCOCCOCCOCCOCCOCCOC(C)COC(C)COC(C)COC(C)COC(C)COC(C)CO)C[Si](O)CCC,"InChI=1S/C87H180O36SSi3/c1-10-71-125(89)80-127(9,81-126(90)72-11-2)73-13-70-124-69-12-14-91-15-16-92-17-18-93-19-20-94-21-22-95-23-24-96-25-26-97-27-28-98-29-30-99-31-32-100-33-34-101-35-36-102-37-38-103-39-40-104-41-42-105-43-44-106-45-46-107-47-48-108-49-50-109-51-52-110-53-54-111-55-56-112-57-58-113-59-60-114-61-62-115-63-64-116-65-66-117-67-68-118-83(4)75-120-85(6)77-122-87(8)79-123-86(7)78-121-84(5)76-119-82(3)74-88/h82-90H,10-81H2,1-9H3",IIARIWXFSUSQSM-UHFFFAOYSA-N,1917.12828267,0.0000724,4.14026143380285,30.4,0.00000216,0.77,42.1,5.76,0.00000174,25,non-ionic,10.1021/acs.jpcb.8b10727,10.1021/acs.jpcb.8b10727,,10.1021/acs.jpcb.8b10727,10.1021/acs.jpcb.8b10727,10.1021/acs.jpcb.8b10727,10.1021/acs.jpcb.8b10727,10.1021/acs.jpcb.8b10727,