IUPAC_name,SMILES,InChI,InChIKey,Molecular_Weight,CMC,pCMC,AW_ST_CMC,Gamma_max,Area_min,Pi_CMC,PC20,C20,Temp_Celsius,Surfactant_Type,Ref_CMC,Ref_AW_ST_CMC,SubRef_CMC,SubRef_AW_ST_CMC,Ref_Gamma_max,Ref_Pi_CMC,Ref_Area_min,Ref_PC20,Ref_C20
POE(10) cetyl ether,CCCCCCCCCCCCCCCCOCCOCCOCCOCCOCCOCCOCCOCCOCCOCCO,"InChI=1S/C36H74O11/c1-2-3-4-5-6-7-8-9-10-11-12-13-14-15-17-38-19-21-40-23-25-42-27-29-44-31-33-46-35-36-47-34-32-45-30-28-43-26-24-41-22-20-39-18-16-37/h37H,2-36H2,1H3",ZWINLZAYDMUOAE-UHFFFAOYSA-N,682.523113188,0.000002,5.69897000433602,,,,,,,24.85,non-ionic,10.1007/s11743-001-0184-2,,,,,,,,
2-[2-[2-[2-[2-[2-[2-[2-[2-[2-[2-(2-hexadecoxyethoxy)ethoxy]ethoxy]ethoxy]ethoxy]ethoxy]ethoxy]ethoxy]ethoxy]ethoxy]ethoxy]ethanol,CCCCCCCCCCCCCCCCOCCOCCOCCOCCOCCOCCOCCOCCOCCOCCOCCOCCO,"InChI=1S/C40H82O13/c1-2-3-4-5-6-7-8-9-10-11-12-13-14-15-17-42-19-21-44-23-25-46-27-29-48-31-33-50-35-37-52-39-40-53-38-36-51-34-32-49-30-28-47-26-24-45-22-20-43-18-16-41/h41H,2-40H2,1H3",DVCJBXDDMHZFDE-UHFFFAOYSA-N,770.575542684,0.0000023,5.63827216398241,38.8,0.00000231,0.72,33.2,6.63919135125624,0.00130808459723131,25,non-ionic,10.1021/acs.jpcb.1c05264,10.1016/j.ces.2022.118208,10.1002/9781118228920,10.1002/0471670561,,,10.1111/j.2042-7158.1962.tb10540.x,calculated,calculated
2-[2-[2-[2-[2-[2-[2-[2-[2-[2-[2-[2-[2-[2-(2-hexadecoxyethoxy)ethoxy]ethoxy]ethoxy]ethoxy]ethoxy]ethoxy]ethoxy]ethoxy]ethoxy]ethoxy]ethoxy]ethoxy]ethoxy]ethanol,CCCCCCCCCCCCCCCCOCCOCCOCCOCCOCCOCCOCCOCCOCCOCCOCCOCCOCCOCCOCCO,"InChI=1S/C46H94O16/c1-2-3-4-5-6-7-8-9-10-11-12-13-14-15-17-48-19-21-50-23-25-52-27-29-54-31-33-56-35-37-58-39-41-60-43-45-62-46-44-61-42-40-59-38-36-57-34-32-55-30-28-53-26-24-51-22-20-49-18-16-47/h47H,2-46H2,1H3",GQKLMSVBMYUPQC-UHFFFAOYSA-N,902.654186928,0.0000031,5.50863830616573,39.8,0.00000205,0.81,32.2,6.55105902071676,0.00142860187793399,25,non-ionic,10.1021/acs.jpcb.1c05264,10.1016/j.ces.2022.118208,10.1002/9781118228920,10.1002/0471670561,,,10.1111/j.2042-7158.1962.tb10540.x,calculated,calculated
,CCCCCCCCCCCCCCCCOCCOCCOCCOCCOCCOCCOCCOCCOCCOCCOCCOCCOCCOCCOCCOCCOCCO,"InChI=1S/C50H102O18/c1-2-3-4-5-6-7-8-9-10-11-12-13-14-15-17-52-19-21-54-23-25-56-27-29-58-31-33-60-35-37-62-39-41-64-43-45-66-47-49-68-50-48-67-46-44-65-42-40-63-38-36-61-34-32-59-30-28-57-26-24-55-22-20-53-18-16-51/h51H,2-50H2,1H3",JUBGIVZNTPEBDX-UHFFFAOYSA-N,990.706616424,,,39.7,,,,,,,non-ionic,,10.1016/j.ces.2022.118208,,10.1016/0021-9797(76)90313-1,,,,,
POE(20) cetyl ether,CCCCCCCCCCCCCCCCOCCOCCOCCOCCOCCOCCOCCOCCOCCOCCOCCOCCOCCOCCOCCOCCOCCOCCOCCOCCO,"InChI=1S/C56H114O21/c1-2-3-4-5-6-7-8-9-10-11-12-13-14-15-17-58-19-21-60-23-25-62-27-29-64-31-33-66-35-37-68-39-41-70-43-45-72-47-49-74-51-53-76-55-56-77-54-52-75-50-48-73-46-44-71-42-40-69-38-36-67-34-32-65-30-28-63-26-24-61-22-20-59-18-16-57/h57H,2-56H2,1H3",NLMKTBGFQGKQEV-UHFFFAOYSA-N,1122.785260668,0.000007,5.15490195998574,,,,,,,24.85,non-ionic,10.1007/s11743-001-0184-2,,,,,,,,
2-[2-[2-[2-[2-[2-[2-[2-[2-[2-[2-[2-[2-[2-[2-[2-[2-[2-[2-[2-(2-hexadecoxyethoxy)ethoxy]ethoxy]ethoxy]ethoxy]ethoxy]ethoxy]ethoxy]ethoxy]ethoxy]ethoxy]ethoxy]ethoxy]ethoxy]ethoxy]ethoxy]ethoxy]ethoxy]ethoxy]ethoxy]ethanol,CCCCCCCCCCCCCCCCOCCOCCOCCOCCOCCOCCOCCOCCOCCOCCOCCOCCOCCOCCOCCOCCOCCOCCOCCOCCOCCO,"InChI=1S/C58H118O22/c1-2-3-4-5-6-7-8-9-10-11-12-13-14-15-17-60-19-21-62-23-25-64-27-29-66-31-33-68-35-37-70-39-41-72-43-45-74-47-49-76-51-53-78-55-57-80-58-56-79-54-52-77-50-48-75-46-44-73-42-40-71-38-36-69-34-32-67-30-28-65-26-24-63-22-20-61-18-16-59/h59H,2-58H2,1H3",LHBDBXSBQCGNOW-UHFFFAOYSA-N,1166.811475416,0.0000039,5.4089353929735,44.8,0.00000138,1.2,27.2,6.32281812918004,0.00179487817364638,25,non-ionic,10.1021/acs.jpcb.1c05264,10.1016/j.ces.2022.118208,10.1002/9781118228920,10.1002/0471670561,,,10.1111/j.2042-7158.1962.tb10540.x,calculated,calculated
,CCCCCCCCCCCCCCCCOCCOCCOCCOCCOCCOCCOCCOCCOCCOCCOCCOCCOCCOCCOCCOCCOCCOCCOCCOCCOCCOCCOCCOCCOCCOCCOCCOCCOCCOCCOCCOCCOCCOCCOCCOCCOCCOCCOCCOCCOCCOCCOCCOCCO,"InChI=1S/C104H210O45/c1-2-3-4-5-6-7-8-9-10-11-12-13-14-15-17-106-19-21-108-23-25-110-27-29-112-31-33-114-35-37-116-39-41-118-43-45-120-47-49-122-51-53-124-55-57-126-59-61-128-63-65-130-67-69-132-71-73-134-75-77-136-79-81-138-83-85-140-87-89-142-91-93-144-95-97-146-99-101-148-103-104-149-102-100-147-98-96-145-94-92-143-90-88-141-86-84-139-82-80-137-78-76-135-74-72-133-70-68-131-66-64-129-62-60-127-58-56-125-54-52-123-50-48-121-46-44-119-42-40-117-38-36-115-34-32-113-30-28-111-26-24-109-22-20-107-18-16-105/h105H,2-104H2,1H3",VSHYXEIQMWXFNP-UHFFFAOYSA-N,2179.41441462,,,44.7,,,,,,,non-ionic,,10.1016/j.ces.2022.118208,,10.1016/0021-9797(76)90313-1,,,,,
,CCCCCCCCCCCCCCCCOCCOCCOCCOCCOCCOCCOCCOCCOCCOCCOCCOCCOCCOCCOCCOCCOCCOCCOCCOCCOCCOCCOCCOCCOCCOCCOCCOCCOCCOCCOCCOCCOCCOCCOCCOCCOCCOCCOCCOCCOCCOCCOCCOCCOCCOCCOCCOCCOCCOCCOCCOCCOCCOCCOCCOCCOCCOCCOCCOCCOCCOCCOCCO,"InChI=1S/C142H286O64/c1-2-3-4-5-6-7-8-9-10-11-12-13-14-15-17-144-19-21-146-23-25-148-27-29-150-31-33-152-35-37-154-39-41-156-43-45-158-47-49-160-51-53-162-55-57-164-59-61-166-63-65-168-67-69-170-71-73-172-75-77-174-79-81-176-83-85-178-87-89-180-91-93-182-95-97-184-99-101-186-103-105-188-107-109-190-111-113-192-115-117-194-119-121-196-123-125-198-127-129-200-131-133-202-135-137-204-139-141-206-142-140-205-138-136-203-134-132-201-130-128-199-126-124-197-122-120-195-118-116-193-114-112-191-110-108-189-106-104-187-102-100-185-98-96-183-94-92-181-90-88-179-86-84-177-82-80-175-78-76-173-74-72-171-70-68-169-66-64-167-62-60-165-58-56-163-54-52-161-50-48-159-46-44-157-42-40-155-38-36-153-34-32-151-30-28-149-26-24-147-22-20-145-18-16-143/h143H,2-142H2,1H3",WKWPAADDMMECMD-UHFFFAOYSA-N,3015.912494832,,,47.5,,,,,,,non-ionic,,10.1016/j.ces.2022.118208,,10.1016/0021-9797(76)90313-1,,,,,
,CCCCCCCCCCCCCCCCOCCOCCOCCOCCOS(=O)(=O)[O-].[Na+],"InChI=1S/C24H50O8S.Na/c1-2-3-4-5-6-7-8-9-10-11-12-13-14-15-16-28-17-18-29-19-20-30-21-22-31-23-24-32-33(25,26)27;/h2-24H2,1H3,(H,25,26,27);/q;+1/p-1",WMJZEXWYANPSHL-UHFFFAOYSA-M,520.304583808,0.0001,4,,,,,,,25,anionic,10.1016/0021-9797(76)90178-8,,,,,,,,
,CCCCCCCCCCCCCCCCOCCOCCOCCOS(=O)(=O)[O-].[Na+],"InChI=1S/C22H46O7S.Na/c1-2-3-4-5-6-7-8-9-10-11-12-13-14-15-16-26-17-18-27-19-20-28-21-22-29-30(23,24)25;/h2-22H2,1H3,(H,23,24,25);/q;+1/p-1",UXNPUKOYLVCQFH-UHFFFAOYSA-M,476.27836906,0.0001,4,,,,,,,25,anionic,10.1016/0021-9797(76)90178-8,,,,,,,,
,CCCCCCCCCCCCCCCCOCCOCCOS(=O)(=O)[O-].[Na+],"InChI=1S/C20H42O6S.Na/c1-2-3-4-5-6-7-8-9-10-11-12-13-14-15-16-24-17-18-25-19-20-26-27(21,22)23;/h2-20H2,1H3,(H,21,22,23);/q;+1/p-1",PVFDZFXVVPTVAO-UHFFFAOYSA-M,432.252154312,0.00014,3.85387196432176,,,,,,,25,anionic,10.1016/0021-9797(76)90178-8,,,,,,,,
,CCCCCCCCCCCCCCCCOCCOCC[N+](C)(C)C.[Br-],"InChI=1S/C23H50NO2.BrH/c1-5-6-7-8-9-10-11-12-13-14-15-16-17-18-20-25-22-23-26-21-19-24(2,3)4;/h5-23H2,1-4H3;1H/q+1;/p-1",XCCZNWXJOYKOFO-UHFFFAOYSA-M,451.30249194,0.00023,3.63827216398241,44.6,,0.97,27.9,,,25,cationic,10.1016/0927-7757(95)03093-S,10.1016/j.ces.2022.118208,,10.1007/BF01550555,,10.1016/0927-7757(95)03093-S,10.1016/0927-7757(95)03093-S,,
,CCCCCCCCCCCCCCCCOCCOCC[N+]1CCCCC1.[Cl-],"InChI=1S/C25H51NO2.ClH/c1-2-3-4-5-6-7-8-9-10-11-12-13-14-18-22-27-24-25-28-23-21-26-19-16-15-17-20-26;/h2-25H2,1H3;1H/q+1;/p-1",PAZOOWIDVZMBFC-UHFFFAOYSA-M,432.360832552,0.00018,3.74472749489669,,,,,,,25,cationic,10.1016/0021-9797(76)90178-8,,,,,,,,
,CCCCCCCCCCCCCCCCOCCOCC[n+]1ccccc1.[Cl-],"InChI=1S/C25H46NO2.ClH/c1-2-3-4-5-6-7-8-9-10-11-12-13-14-18-22-27-24-25-28-23-21-26-19-16-15-17-20-26;/h15-17,19-20H,2-14,18,21-25H2,1H3;1H/q+1;/p-1",XBEXEMFOZUUSJX-UHFFFAOYSA-M,427.321707392,,,46.5,,,,,,,cationic,,10.1016/j.ces.2022.118208,,10.1016/0021-9797(72)90366-9,,,,,
,CCCCCCCCCCCCCCCCOCCOS(=O)(=O)[O-].[Na+],"InChI=1S/C18H38O5S.Na/c1-2-3-4-5-6-7-8-9-10-11-12-13-14-15-16-22-17-18-23-24(19,20)21;/h2-18H2,1H3,(H,19,20,21);/q;+1/p-1",SRGOZMJZADWWPU-UHFFFAOYSA-M,388.225939564,0.00022,3.65757731917779,,,,,,,25,anionic,10.1016/0021-9797(76)90178-8,,,,,,,,
,CCCCCCCCCCCCCCCCOCC[N+]1CCCCC1.[Cl-],"InChI=1S/C23H47NO.ClH/c1-2-3-4-5-6-7-8-9-10-11-12-13-14-18-22-25-23-21-24-19-16-15-17-20-24;/h2-23H2,1H3;1H/q+1;/p-1",QKVXFAVLJUCRCU-UHFFFAOYSA-M,388.334617804,0.00029,3.53760200210104,,,,,,,25,cationic,10.1016/0021-9797(76)90178-8,,,,,,,,
,CCCCCCCCCCCCCCCCOCC[n+]1ccccc1.[Cl-],"InChI=1S/C23H42NO.ClH/c1-2-3-4-5-6-7-8-9-10-11-12-13-14-18-22-25-23-21-24-19-16-15-17-20-24;/h15-17,19-20H,2-14,18,21-23H2,1H3;1H/q+1;/p-1",CVNKMUUNCZDZAT-UHFFFAOYSA-M,383.295492644,,,46,,,,,,,cationic,,10.1016/j.ces.2022.118208,,10.1016/0021-9797(72)90366-9,,,,,
,CCCCCCCCCCCCCCCCOCOC[C@H]1OC(O)[C@H](O)[C@@H](O)[C@@H]1O,"InChI=1S/C23H46O7/c1-2-3-4-5-6-7-8-9-10-11-12-13-14-15-16-28-18-29-17-19-20(24)21(25)22(26)23(27)30-19/h19-27H,2-18H2,1H3/t19-,20-,21+,22-,23?/m1/s1",OHJCUNVRFJCLTB-HZQGQDIUSA-N,434.324353812,0.00014,3.85387196432176,,,,,,,25,non-ionic,10.1021/ie4016232,,,,,,,,
,CCCCCCCCCCCCCCCCOCOC[C@H]1O[C@@H](O[C@@H]([C@H](O)[C@@H](O)CO)[C@H](O)CO)[C@H](O)[C@@H](O)[C@H]1O,"InChI=1S/C29H58O12/c1-2-3-4-5-6-7-8-9-10-11-12-13-14-15-16-38-20-39-19-23-25(35)26(36)27(37)29(40-23)41-28(22(33)18-31)24(34)21(32)17-30/h21-37H,2-20H2,1H3/t21-,22+,23+,24+,25-,26-,27+,28+,29-/m0/s1",CIWKJWNVCFCQKU-MXNILJKYSA-N,598.392827296,0.000007586,5.11998716163323,,,,,,,25,non-ionic,10.1021/ie4016232,,,,,,,,
,CCCCCCCCCCCCCCCCOCOC[C@H]1O[C@@H](O[C@H]2[C@H](O)[C@@H](O)[C@H](O)O[C@@H]2CO)[C@H](O)[C@@H](O)[C@H]1O,"InChI=1S/C29H56O12/c1-2-3-4-5-6-7-8-9-10-11-12-13-14-15-16-37-19-38-18-21-22(31)23(32)26(35)29(40-21)41-27-20(17-30)39-28(36)25(34)24(27)33/h20-36H,2-19H2,1H3/t20-,21-,22+,23+,24-,25-,26-,27-,28-,29+/m1/s1",LQQFJKOWDXEBGF-RVDMBQLFSA-N,596.377177232,0.00000955,5.01999662841625,,,,,,,25,non-ionic,10.1021/ie4016232,,,,,,,,
,CCCCCCCCCCCCCCCCOOCCOCCOCCOCCOCCOCC,"InChI=1S/C28H58O7/c1-3-5-6-7-8-9-10-11-12-13-14-15-16-17-18-34-35-28-27-33-26-25-32-24-23-31-22-21-30-20-19-29-4-2/h3-28H2,1-2H3",LAKKWOBYSSAKGL-UHFFFAOYSA-N,506.418254196,0.00000166,5.77989191195995,32,,,40,,,25,non-ionic,10.1021/ie4016232,10.1081/DIS-200054572,,,,,,,
,CCCCCCCCCCCCCCCCOOCCOCCOCCOCCOCCOCCOCC,"InChI=1S/C30H62O8/c1-3-5-6-7-8-9-10-11-12-13-14-15-16-17-18-37-38-30-29-36-28-27-35-26-25-34-24-23-33-22-21-32-20-19-31-4-2/h3-30H2,1-2H3",QCQQRPITKWDWTQ-UHFFFAOYSA-N,550.444468944,0.000001698,5.77006231409207,33,,,39,,,25,non-ionic,10.1021/ie4016232,10.1081/DIS-200054572,,,,,,,
,CCCCCCCCCCCCCCCCOOCCOCCOCCOCCOCCOCCOCCOCC,"InChI=1S/C32H66O9/c1-3-5-6-7-8-9-10-11-12-13-14-15-16-17-18-40-41-32-31-39-30-29-38-28-27-37-26-25-36-24-23-35-22-21-34-20-19-33-4-2/h3-32H2,1-2H3",RDCGOKWOUBTALU-UHFFFAOYSA-N,594.470683692,0.000001199,5.92118081690115,,,,,,,25,non-ionic,10.1021/ie4016232,,,,,,,,
,CCCCCCCCCCCCCCCCOOCCOCCOCCOCCOCCOCCOCCOCCOCC,"InChI=1S/C34H70O10/c1-3-5-6-7-8-9-10-11-12-13-14-15-16-17-18-43-44-34-33-42-32-31-41-30-29-40-28-27-39-26-25-38-24-23-37-22-21-36-20-19-35-4-2/h3-34H2,1-2H3",CYXJXDRLDFWBFI-UHFFFAOYSA-N,638.49689844,0.000002099,5.6779875614176,35.8,,,36.2,,,25,non-ionic,10.1021/ie4016232,10.1081/DIS-200054572,,,,,,,
,CCCCCCCCCCCCCCCCOOCCOCCOCCOCCOCCOCCOCCOCCOCCOCC,"InChI=1S/C36H74O11/c1-3-5-6-7-8-9-10-11-12-13-14-15-16-17-18-46-47-36-35-45-34-33-44-32-31-43-30-29-42-28-27-41-26-25-40-24-23-39-22-21-38-20-19-37-4-2/h3-36H2,1-2H3",SZNLQMZESTUOQH-UHFFFAOYSA-N,682.523113188,0.000002,5.69897000433602,,,,,,,25,non-ionic,10.1021/ie4016232,,,,,,,,
,CCCCCCCCCCCCCCCCOOCCOCCOCCOCCOCCOCCOCCOCCOCCOCCOCCOCC,"InChI=1S/C40H82O13/c1-3-5-6-7-8-9-10-11-12-13-14-15-16-17-18-52-53-40-39-51-38-37-50-36-35-49-34-33-48-32-31-47-30-29-46-28-27-45-26-25-44-24-23-43-22-21-42-20-19-41-4-2/h3-40H2,1-2H3",IGKJQFJKXPVSLB-UHFFFAOYSA-N,770.575542684,0.000002301,5.63808338133136,38.9,,,33.1,,,25,non-ionic,10.1021/ie4016232,10.1081/DIS-200054572,,,,,,,
sodium-hexadecylsulfate,CCCCCCCCCCCCCCCCOS(=O)(=O)[O-].[Na+],"InChI=1S/C16H34O4S.Na/c1-2-3-4-5-6-7-8-9-10-11-12-13-14-15-16-20-21(17,18)19;/h2-16H2,1H3,(H,17,18,19);/q;+1/p-1",GGHPAKFFUZUEKL-UHFFFAOYSA-M,344.199724816,0.0004,3.39794000867204,,0.0000005,3.32,,,,25,anionic,"['10.1016/0021-9797(76)90178-8', '10.1021/ci600462d', '10.1021/ci600462d']",,10.1006/jcis.1996.4680,,,,10.1081/DIS-120014014,,
,CCCCCCCCCCCCCCCCOc1ccc(C[n+]2ccn(C)c2)cc1.[Br-],"InChI=1S/C27H45N2O.BrH/c1-3-4-5-6-7-8-9-10-11-12-13-14-15-16-23-30-27-19-17-26(18-20-27)24-29-22-21-28(2)25-29;/h17-22,25H,3-16,23-24H2,1-2H3;1H/q+1;/p-1",PBVNFNZTOFOGHC-UHFFFAOYSA-M,492.27152616,,,37.9,,,,,,,cationic,,10.1016/j.ces.2022.118208,,10.1002/ejlt.201000437,,,,,
"N,N,N′,N′-tetramethylhexadecylenediaminewith2-bromo-N-(4-(hexyloxy)phenyl)acetamide",CCCCCCCCCCCCCCCCOc1ccc(NC(=O)C[N+](C)(C)CCCCCC[N+](C)(C)CC(=O)Nc2ccc(OCCCCCCCCCCCCCCCC)cc2)cc1.[Br-].[Br-],"InChI=1S/C58H102N4O4.2BrH/c1-7-9-11-13-15-17-19-21-23-25-27-29-33-37-49-65-55-43-39-53(40-44-55)59-57(63)51-61(3,4)47-35-31-32-36-48-62(5,6)52-58(64)60-54-41-45-56(46-42-54)66-50-38-34-30-28-26-24-22-20-18-16-14-12-10-8-2;;/h39-46H,7-38,47-52H2,1-6H3;2*1H",GVBBOFIENJEILU-UHFFFAOYSA-N,1078.642432008,0.0000288,4.54060751224077,45,0.00000172,0.97,27,4.87,0.0000135,25,gemini cationic,10.1016/j.molliq.2017.06.008,"['10.1016/j.ces.2022.118208', '10.1016/j.molliq.2017.06.008', '10.1201/9780203911518']",,10.1016/j.molliq.2017.06.008,10.1016/j.molliq.2017.06.008,,10.1016/j.molliq.2017.06.008,10.1016/j.molliq.2017.06.008,
"N,N,N′,N′-tetramethylhexadecylenediaminewith2-bromo-N-(4-(butyloxy)phenyl)acetamide",CCCCCCCCCCCCCCCCOc1ccc(NC(=O)C[N+](C)(C)CCCC[N+](C)(C)CC(=O)Nc2ccc(OCCCCCCCCCCCCCCCC)cc2)cc1.[Br-].[Br-],"InChI=1S/C56H98N4O4.2BrH/c1-7-9-11-13-15-17-19-21-23-25-27-29-31-35-47-63-53-41-37-51(38-42-53)57-55(61)49-59(3,4)45-33-34-46-60(5,6)50-56(62)58-52-39-43-54(44-40-52)64-48-36-32-30-28-26-24-22-20-18-16-14-12-10-8-2;;/h37-44H,7-36,45-50H2,1-6H3;2*1H",PWKYZIOSYUXYOE-UHFFFAOYSA-N,1050.61113188,0.000009,5.04575749056068,48,0.00000124,1.34,24,5.49,0.00000324,25,gemini cationic,10.1016/j.molliq.2017.06.008,"['10.1016/j.ces.2022.118208', '10.1016/j.molliq.2017.06.008', '10.1201/9780203911518']",10.3390/pr7080502,10.1016/j.molliq.2017.06.008,10.1016/j.molliq.2017.06.008,,10.1016/j.molliq.2017.06.008,10.1016/j.molliq.2017.06.008,
"N,N,N′,N′-tetramethylhexadecylenediaminewith2-bromo-N-(4-(ethyloxy)phenyl)acetamide",CCCCCCCCCCCCCCCCOc1ccc(NC(=O)C[N+](C)(C)CC[N+](C)(C)CC(=O)Nc2ccc(OCCCCCCCCCCCCCCCC)cc2)cc1.[Br-].[Br-],"InChI=1S/C54H94N4O4.2BrH/c1-7-9-11-13-15-17-19-21-23-25-27-29-31-33-45-61-51-39-35-49(36-40-51)55-53(59)47-57(3,4)43-44-58(5,6)48-54(60)56-50-37-41-52(42-38-50)62-46-34-32-30-28-26-24-22-20-18-16-14-12-10-8-2;;/h35-42H,7-34,43-48H2,1-6H3;2*1H",CCUUCDDBNCKPRT-UHFFFAOYSA-N,1022.579831752,0.000014,4.85387196432176,46,0.00000087,1.91,26,5.35,0.00000447,25,gemini cationic,10.1016/j.molliq.2017.06.008,"['10.1016/j.ces.2022.118208', '10.1016/j.molliq.2017.06.008', '10.1201/9780203911518']",10.3390/pr7080502,10.1016/j.molliq.2017.06.008,10.1016/j.molliq.2017.06.008,,10.1016/j.molliq.2017.06.008,10.1016/j.molliq.2017.06.008,
,CCCCCCCCCCCCCCCCOc1ccc[n+](CC(O)C[n+]2cccc(OCCCCCCCCCCCCCCCC)c2)c1.[Br-].[Br-],"InChI=1S/C45H80N2O3.2BrH/c1-3-5-7-9-11-13-15-17-19-21-23-25-27-29-37-49-44-33-31-35-46(41-44)39-43(48)40-47-36-32-34-45(42-47)50-38-30-28-26-24-22-20-18-16-14-12-10-8-6-4-2;;/h31-36,41-43,48H,3-30,37-40H2,1-2H3;2*1H/q+2;;/p-2",YZJFMMYSRODAAX-UHFFFAOYSA-L,854.45356862,,,,,,,,,,gemini cationic,,,,,,,,,
sodium-hexadecane-1-sulfonate,CCCCCCCCCCCCCCCCS(=O)(=O)[O-].[Na+],"InChI=1S/C16H34O3S.Na/c1-2-3-4-5-6-7-8-9-10-11-12-13-14-15-16-20(17,18)19;/h2-16H2,1H3,(H,17,18,19);/q;+1/p-1",PNGBYKXZVCIZRN-UHFFFAOYSA-M,328.204810196,0.0007396,3.13100309751286,,,,,,,25,anionic,10.1021/ci600462d,,,,,,,,
hexadecyl(trimethyl)azanium-4-methylbenzenesulfonate,CCCCCCCCCCCCCCCC[N+](C)(C)C.Cc1ccc(S(=O)(=O)[O-])cc1,"InChI=1S/C19H42N.C7H8O3S/c1-5-6-7-8-9-10-11-12-13-14-15-16-17-18-19-20(2,3)4;1-6-2-4-7(5-3-6)11(8,9)10/h5-19H2,1-4H3;2-5H,1H3,(H,8,9,10)/q+1;/p-1",MZMRZONIDDFOGF-UHFFFAOYSA-M,455.343315428,0.00023,3.63827216398241,32,0.00000346,0.48,40,4.1,0.00008,25,cationic,10.1016/j.tca.2004.11.009,,,,,,10.1016/j.tca.2004.11.009,,10.1016/j.tca.2004.11.009
hexadecyl-trimethyl-ammoniumbromide,CCCCCCCCCCCCCCCC[N+](C)(C)C.[Br-],"InChI=1S/C19H42N.BrH/c1-5-6-7-8-9-10-11-12-13-14-15-16-17-18-19-20(2,3)4;/h5-19H2,1-4H3;1H/q+1;/p-1",LZZYPRNAOMGNLH-UHFFFAOYSA-M,363.250062444,0.00098,3.00877392430751,37,0.00000424,0.39,35,3.31861034725489,0.0362031065601075,25,cationic,"['10.1016/j.colsurfa.2014.06.019', '10.1021/acs.jpcb.1c05264', '10.1021/acs.jpcb.1c05264']","['10.1016/j.colsurfa.2014.06.019', '10.1016/j.ces.2022.118208', '10.1016/j.ces.2022.118208']",10.1002/9781118228920,10.1016/S0144-8617(01)00299-5,10.1016/j.colsurfa.2014.06.019,,10.1016/j.colsurfa.2014.06.019,calculated,calculated
Hexadecylammoniumchloride,CCCCCCCCCCCCCCCC[N+](C)(C)C.[Cl-],"InChI=1S/C19H42N.ClH/c1-5-6-7-8-9-10-11-12-13-14-15-16-17-18-19-20(2,3)4;/h5-19H2,1-4H3;1H/q+1;/p-1",WOWHHFRSBJGXCM-UHFFFAOYSA-M,319.300578024,0.0013,2.88605664769316,41,0.00000125,0.54,31,4.1,0.00008,25,cationic,10.1016/j.tca.2004.11.009,10.1016/j.ces.2022.118208,,10.1016/j.tca.2004.11.009,,,10.1016/j.tca.2004.11.009,,10.1016/j.tca.2004.11.009
"Ethane-1,2-diylbis(N,N-dimethyl-N-hexadecyl-ammoniumacetoamide)dichloride",CCCCCCCCCCCCCCCC[N+](C)(C)CC(=O)NCCNC(=O)C[N+](C)(C)CCCCCCCCCCCCCCCC.[Cl-].[Cl-],"InChI=1S/C42H86N4O2.2ClH/c1-7-9-11-13-15-17-19-21-23-25-27-29-31-33-37-45(3,4)39-41(47)43-35-36-44-42(48)40-46(5,6)38-34-32-30-28-26-24-22-20-18-16-14-12-10-8-2;;/h7-40H2,1-6H3;2*1H",ZDDRKTJVKPCBKL-UHFFFAOYSA-N,750.628433416,0.00004772,4.3212995650017,50,0.00000157,1.63,21.18,4.43,0.0000376,29.85,gemini cationic,10.1016/j.molliq.2015.01.055,10.1016/j.ces.2022.118208,,10.1016/j.molliq.2015.01.055,10.1016/j.molliq.2015.01.055,calculated,10.1016/j.molliq.2015.01.055,10.1016/j.molliq.2015.01.055,
,CCCCCCCCCCCCCCCC[N+](C)(C)CC(=O)Nc1ccccc1.[Cl-],"InChI=1S/C26H46N2O.ClH/c1-4-5-6-7-8-9-10-11-12-13-14-15-16-20-23-28(2,3)24-26(29)27-25-21-18-17-19-22-25;/h17-19,21-22H,4-16,20,23-24H2,1-3H3;1H",VHMPOFARDFNHGO-UHFFFAOYSA-N,438.337691804,,,32.4,,,,,,,cationic,,10.1016/j.ces.2022.118208,,10.1021/acsomega.0c00294,,,,,
"N,N-Dimethylhexadecylamine",CCCCCCCCCCCCCCCC[N+](C)(C)CC(=O)OCCCOC(=O)C[N+](C)(C)CCCCCCCCCCCCCCCC.[Cl-].[Cl-],"InChI=1S/C43H88N2O4.2ClH/c1-7-9-11-13-15-17-19-21-23-25-27-29-31-33-36-44(3,4)40-42(46)48-38-35-39-49-43(47)41-45(5,6)37-34-32-30-28-26-24-22-20-18-16-14-12-10-8-2;;/h7-41H2,1-6H3;2*1H/q+2;;/p-2",YLKQVJFAIKLZPY-UHFFFAOYSA-L,766.612114656,0.000056,4.2518119729938,43.2,0.00000106,1.57,28.75,4.44,0.0000364,25,gemini cationic,10.1016/j.molliq.2017.05.092,10.1016/j.ces.2022.118208,,10.1016/j.molliq.2017.05.092,10.1016/j.molliq.2017.05.092,,10.1016/j.molliq.2017.05.092,10.1016/j.molliq.2017.05.092,
"Triethanolaminetris(dimethylhexadecylammonioacetate),tribromide",CCCCCCCCCCCCCCCC[N+](C)(C)CC(=O)OCCN(CCOC(=O)C[N+](C)(C)CCCCCCCCCC)CCOC(=O)C[N+](C)(C)CCCCCCCCCC.[Br-].[Br-].[Br-],"InChI=1S/C54H111N4O6.3BrH/c1-10-13-16-19-22-25-26-27-28-29-30-33-36-39-45-58(8,9)51-54(61)64-48-42-55(40-46-62-52(59)49-56(4,5)43-37-34-31-23-20-17-14-11-2)41-47-63-53(60)50-57(6,7)44-38-35-32-24-21-18-15-12-3;;;/h10-51H2,1-9H3;3*1H/q+3;;;/p-3",LJYYIHMOJDXAKV-UHFFFAOYSA-K,1148.605373572,0.0000062,5.20760831050175,38.5,0.0000015,1.11,33.5,5.60172024049082,0.003691507969862,25,gemini cationic,10.1016/j.colsurfa.2014.06.019,10.1016/j.ces.2022.118208,,10.1016/j.colsurfa.2014.06.019,10.1016/j.colsurfa.2014.06.019,,10.1016/j.colsurfa.2014.06.019,calculated,calculated
"Ethane-1,2-diylbis(N,N-dimethyl-N-hexadecyl-ammoniumacetoxy)dichloride",CCCCCCCCCCCCCCCC[N+](C)(C)CC(=O)OCCOC(=O)C[N+](C)(C)CCCCCCCCCCCCCCCC.[Cl-].[Cl-],"InChI=1S/C42H86N2O4.2ClH/c1-7-9-11-13-15-17-19-21-23-25-27-29-31-33-35-43(3,4)39-41(45)47-37-38-48-42(46)40-44(5,6)36-34-32-30-28-26-24-22-20-18-16-14-12-10-8-2;;/h7-40H2,1-6H3;2*1H/q+2;;/p-2",RJFDRQUTIGFRNR-UHFFFAOYSA-L,752.596464592,0.00000425,5.37161106994969,44.8,0.000000945,1.42,26.38,5.6,0.00000252,29.85,gemini cationic,10.1016/j.molliq.2015.01.055,10.1016/j.ces.2022.118208,,10.1016/j.molliq.2015.01.055,10.1016/j.molliq.2015.01.055,calculated,10.1016/j.molliq.2015.01.055,10.1016/j.molliq.2015.01.055,