IUPAC_name,SMILES,InChI,InChIKey,Molecular_Weight,CMC,pCMC,AW_ST_CMC,Gamma_max,Area_min,Pi_CMC,PC20,C20,Temp_Celsius,Surfactant_Type,Ref_CMC,Ref_AW_ST_CMC,SubRef_CMC,SubRef_AW_ST_CMC,Ref_Gamma_max,Ref_Pi_CMC,Ref_Area_min,Ref_PC20,Ref_C20
sodium-4-tetradecan-7-ylbenzenesulfonate,CCCCCCCC(CCCCCC)c1ccc(S(=O)(=O)[O-])cc1.[Na+],"InChI=1S/C20H34O3S.Na/c1-3-5-7-9-11-13-18(12-10-8-6-4-2)19-14-16-20(17-15-19)24(21,22)23;/h14-18H,3-13H2,1-2H3,(H,21,22,23);/q;+1/p-1",FGDRGHMPAMKHFT-UHFFFAOYSA-M,376.204810196,0.002512,2.59998036493484,,,,,,,25,anionic,10.1021/ci600462d,,10.1016/j.theochem.2004.08.039,,,,,,
sodium-2-heptylnonyl-sulfate,CCCCCCCC(CCCCCCC)COS(=O)(=O)[O-].[Na+],"InChI=1S/C16H34O4S.Na/c1-3-5-7-9-11-13-16(15-20-21(17,18)19)14-12-10-8-6-4-2;/h16H,3-15H2,1-2H3,(H,17,18,19);/q;+1/p-1",VUBWMAOJZANAOY-UHFFFAOYSA-M,344.199724816,0.002799,2.55299710153384,,,,,,,25,anionic,10.1021/ci600462d,,10.1006/jcis.1996.4680,,,,,,
sodium-pentadecan-8-yl-sulfate,CCCCCCCC(CCCCCCC)OS(=O)(=O)[O-].[Na+],"InChI=1S/C15H32O4S.Na/c1-3-5-7-9-11-13-15(19-20(16,17)18)14-12-10-8-6-4-2;/h15H,3-14H2,1-2H3,(H,16,17,18);/q;+1/p-1",MSDGJRHNSCDTHJ-UHFFFAOYSA-M,330.184074752,0.001722,2.76396685288236,,,,,,,25,anionic,10.1021/ci600462d,,10.1006/jcis.1996.4680,,,,,,
sodium-pentadecane-8-sulfonate,CCCCCCCC(CCCCCCC)S(=O)(=O)[O-].[Na+],"InChI=1S/C15H32O3S.Na/c1-3-5-7-9-11-13-15(19(16,17)18)14-12-10-8-6-4-2;/h15H,3-14H2,1-2H3,(H,16,17,18);/q;+1/p-1",UHELFKQYUUCMFQ-UHFFFAOYSA-M,314.189160132,0.007178,2.14399654600278,,,,,,,25,anionic,10.1021/ci600462d,,,,,,,,
,CCCCCCCC(CS(=O)(=O)[O-])OCO.[Na+],"InChI=1S/C10H22O5S.Na/c1-2-3-4-5-6-7-10(15-9-11)8-16(12,13)14;/h10-11H,2-9H2,1H3,(H,12,13,14);/q;+1/p-1",DMUYEEHFJSQNNJ-UHFFFAOYSA-M,276.100739052,0.07178,1.14399654600278,,,,,,,25,anionic,10.1021/ci600462d,,,,,,,,
,CCCCCCCC(F)(OS(=O)(=O)[O-])C(F)(F)C(F)(F)C(F)(F)F.[Na+],"InChI=1S/C11H16F8O4S.Na/c1-2-3-4-5-6-7-8(12,23-24(20,21)22)9(13,14)10(15,16)11(17,18)19;/h2-7H2,1H3,(H,20,21,22);/q;+1/p-1",OPFSCERLCHUVSW-UHFFFAOYSA-M,418.0461,0.00006998,4.15502606185311,,,,,,,25,anionic,10.1021/ci600462d,,10.1016/j.jfluchem.2003.08.007,,,,,,
Octylglycol,CCCCCCCC(O)CO,"InChI=1S/C9H20O2/c1-2-3-4-5-6-7-9(11)8-10/h9-11H,2-8H2,1H3",LJZULWUXNKDPCG-UHFFFAOYSA-N,160.14632988,0.0049,2.30980391997149,26.7,0.0000052,0.32,45.27,3.16202886259742,0.0423397523404306,25,sugar-based non-ionic,10.1021/acs.iecr.6b02890,10.1016/j.jcis.2018.01.051,10.1016/j.molliq.2018.01.037,,10.1021/j150575a003,calculated,10.1021/j150575a003,calculated,calculated
,CCCCCCCC(O)NC(O)(OS(=O)(=O)[O-])[C@H]1OC(O)[C@H](O)[C@@H](O)[C@@H]1O.[Na+],"InChI=1S/C14H29NO11S.Na/c1-2-3-4-5-6-7-8(16)15-14(21,26-27(22,23)24)12-10(18)9(17)11(19)13(20)25-12;/h8-13,15-21H,2-7H2,1H3,(H,22,23,24);/q;+1/p-1/t8?,9-,10-,11+,12-,13?,14?;/m0./s1",OHSOFFUCKCDNJI-JTKNJVIASA-M,441.128075996,0.0867,1.06198090252379,,,,,,,25,anionic,10.1021/ci600462d,,10.1006/jcis.1996.4680,,,,,,
,CCCCCCCC(O)OCCOCCOCC,"InChI=1S/C14H30O4/c1-3-5-6-7-8-9-14(15)18-13-12-17-11-10-16-4-2/h14-15H,3-13H2,1-2H3",GGMNEMYXIXGPHE-UHFFFAOYSA-N,262.21440944,0.0049,2.30980391997149,,,,,,,25,non-ionic,10.1002/9781118228920.ch3,,,,,,,,
,CCCCCCCC(O)OCCOCCOCCOCCOCC,"InChI=1S/C18H38O6/c1-3-5-6-7-8-9-18(19)24-17-16-23-15-14-22-13-12-21-11-10-20-4-2/h18-19H,3-17H2,1-2H3",MSCOLEHBVBMTTD-UHFFFAOYSA-N,350.266838936,0.0092,2.03621217265445,,,,,,,25,non-ionic,10.1002/9781118228920.ch3,,,,,,,,
,CCCCCCCC(O)OCCOCCOCCOCCOCCOCC,"InChI=1S/C20H42O7/c1-3-5-6-7-8-9-20(21)27-19-18-26-17-16-25-15-14-24-13-12-23-11-10-22-4-2/h20-21H,3-19H2,1-2H3",OVDQGUFSAMGQPZ-UHFFFAOYSA-N,394.293053684,0.0099,2.00436480540245,,,,,,,25,non-ionic,10.1002/9781118228920.ch3,,,,,,,,
,CCCCCCCC(OS(=O)(=O)[O-])C(F)C(F)(F)C(F)(F)F.[Na+],"InChI=1S/C11H18F6O4S.Na/c1-2-3-4-5-6-7-8(21-22(18,19)20)9(12)10(13,14)11(15,16)17;/h8-9H,2-7H2,1H3,(H,18,19,20);/q;+1/p-1",FFDAZRQFLOLJIK-UHFFFAOYSA-M,382.064943624,0.0005,3.30102999566398,,,,,,,25,anionic,10.1021/ci600462d,,10.1016/j.jfluchem.2003.08.007,,,,,,
"[(2R,3R,4S,5S,6R)-2-[(3S,4S,5R)-3,4-dihydroxy-2,5-bis(hydroxymethyl)oxolan-2-yl]oxy-3,4,5-trihydroxy-6-(hydroxymethyl)oxan-2-yl]-(E)-octadec-9-enoate",CCCCCCCC/C=C/CCCCCCCC(=O)O[C@@]1(OC2(CO)O[C@H](CO)[C@@H](O)[C@@H]2O)O[C@H](CO)[C@@H](O)[C@H](O)[C@H]1O,"InChI=1S/C30H54O13/c1-2-3-4-5-6-7-8-9-10-11-12-13-14-15-16-17-23(34)42-30(28(39)26(37)24(35)21(18-31)41-30)43-29(20-33)27(38)25(36)22(19-32)40-29/h9-10,21-22,24-28,31-33,35-39H,2-8,11-20H2,1H3/b10-9+/t21-,22-,24-,25-,26+,27+,28-,29?,30+/m1/s1",HPPQWNPSADYETG-WLYWYRRFSA-N,622.356441788,0.0000051,5.29242982390206,,,,,,,25,sugar-based non-ionic,10.1021/acs.jpcb.1c05264,,10.1002/9781118228920,,,,,,
N-oleyl-N-methylgluconamide,CCCCCCCC/C=C\CCCCCCCCN(C)C(=O)[C@H](O)[C@@H](O)[C@H](O)[C@H](O)CO,"InChI=1S/C25H49NO6/c1-3-4-5-6-7-8-9-10-11-12-13-14-15-16-17-18-19-26(2)25(32)24(31)23(30)22(29)21(28)20-27/h10-11,21-24,27-31H,3-9,12-20H2,1-2H3/b11-10-/t21-,22-,23+,24-/m1/s1",LCDSWVJBQYHPMH-WZSMXJODSA-N,459.355988288,0.000032,4.49485002168009,34.8,0.00000384,0.43,38,5.4,0.00000398,20,sugar-based non-ionic,10.1021/acs.iecr.6b02890,10.1016/j.jcis.2018.01.051,10.1016/j.molliq.2018.01.037,,10.1006/jcis.2001.7704,10.1006/jcis.2001.7704,10.1006/jcis.2001.7704,10.1006/jcis.2001.7704,
Oleyl-β-D-maltoside,CCCCCCCC/C=C\CCCCCCCCOC1OC(CO)C(OC2OC(CO)C(O)C(O)C2O)C(O)C1O,"InChI=1S/C30H56O11/c1-2-3-4-5-6-7-8-9-10-11-12-13-14-15-16-17-18-38-29-27(37)25(35)28(22(20-32)40-29)41-30-26(36)24(34)23(33)21(19-31)39-30/h9-10,21-37H,2-8,11-20H2,1H3/b10-9-",OSLHWOXBYRYOIB-KTKRTIGZSA-N,592.382262612,0.00002,4.69897000433602,,,,,,,25,sugar-based non-ionic,10.1021/acs.iecr.6b02890,,10.1016/j.molliq.2018.01.037,,,,,,
N-(oleoyl)-2-ethylamino]-β-D-maltoside,CCCCCCCC/C=C\CCCCCCCCON(CC)C1OC(CO)C(OC2OC(CO)C(O)C(O)C2O)C(O)C1O,"InChI=1S/C32H61NO11/c1-3-5-6-7-8-9-10-11-12-13-14-15-16-17-18-19-20-41-33(4-2)31-28(39)27(38)30(24(22-35)42-31)44-32-29(40)26(37)25(36)23(21-34)43-32/h11-12,23-32,34-40H,3-10,13-22H2,1-2H3/b12-11-",BSHRAMGBXGWKRM-QXMHVHEDSA-N,635.424461772,0.00009,4.04575749056068,,,,,,,25,sugar-based non-ionic,10.1021/acs.iecr.6b02890,,10.1016/j.molliq.2018.01.037,,,,,,
Oleyl-β-D-maltotrioside,CCCCCCCC/C=C\CCCCCCCCO[C@@H]1O[C@H](CO)[C@@H](O[C@H]2O[C@H](CO)[C@@H](O[C@H]3O[C@H](CO)[C@@H](O)[C@H](O)[C@H]3O)[C@H](O)[C@H]2O)[C@H](O)[C@H]1O,"InChI=1S/C36H66O16/c1-2-3-4-5-6-7-8-9-10-11-12-13-14-15-16-17-18-47-34-30(45)27(42)32(23(20-38)49-34)52-36-31(46)28(43)33(24(21-39)50-36)51-35-29(44)26(41)25(40)22(19-37)48-35/h9-10,22-46H,2-8,11-21H2,1H3/b10-9-/t22-,23-,24-,25-,26+,27-,28-,29-,30-,31-,32-,33-,34-,35-,36-/m1/s1",WHWHZAJYKGAJMV-YYJOHXKCSA-N,754.435086032,0.000042,4.3767507096021,,,,,,,25,sugar-based non-ionic,10.1021/acs.iecr.6b02890,,10.1016/j.molliq.2018.01.037,,,,,,
,CCCCCCCC1=NCC[N+]1(CCCCCC[N+]1(CCNCCN)CCN=C1CCCCCCC)CCNCCN.[Br-].[Br-],"InChI=1S/C34H72N8.2BrH/c1-3-5-7-9-13-17-33-39-25-31-41(33,29-23-37-21-19-35)27-15-11-12-16-28-42(30-24-38-22-20-36)32-26-40-34(42)18-14-10-8-6-4-2;;/h37-38H,3-32,35-36H2,1-2H3;2*1H/q+2;;/p-2",VBQZEXLLXGYMLM-UHFFFAOYSA-L,750.424668504,,,27.4,,,,,,,gemini cationic,,10.1016/j.ces.2022.118208,,10.1080/01932691.2019.1584112,,,,,
,CCCCCCCC=CCCCCCCCCC(=O)NCCC[N+](C)(C)CC=CC[N+](C)(C)CCCNC(=O)CCCCCCCC=CCCCCCCCC.[Br-].[Br-],"InChI=1S/C50H96N4O2.2BrH/c1-7-9-11-13-15-17-19-21-23-25-27-29-31-33-35-41-49(55)51-43-39-47-53(3,4)45-37-38-46-54(5,6)48-40-44-52-50(56)42-36-34-32-30-28-26-24-22-20-18-16-14-12-10-8-2;;/h19,21-22,24,37-38H,7-18,20,23,25-36,39-48H2,1-6H3;2*1H",POODQRCMMGIDKG-UHFFFAOYSA-N,944.605652576,0.000158,3.80134291304558,35.67,0.00000192,0.86,36.33,4.29793610878026,0.0135965919605378,25,gemini cationic,10.1007/s11743-017-1969-1,,,10.1007/s11743-017-1969-1,10.1007/s11743-017-1969-1,10.1007/s11743-017-1969-1,,calculated,calculated
,CCCCCCCC=CCCCCCCCCC(=O)NCCC[N+](C)(C)CC=CC[N+](C)(C)CCCNC(=O)CCCCCCCC=CCCCCCCCC.[Cl-].[Cl-],"InChI=1S/C50H96N4O2.2ClH/c1-7-9-11-13-15-17-19-21-23-25-27-29-31-33-35-41-49(55)51-43-39-47-53(3,4)45-37-38-46-54(5,6)48-40-44-52-50(56)42-36-34-32-30-28-26-24-22-20-18-16-14-12-10-8-2;;/h19,21-22,24,37-38H,7-18,20,23,25-36,39-48H2,1-6H3;2*1H",JNKBDCMZSRVDIG-UHFFFAOYSA-N,856.706683736,0.00000291,5.53610701101409,37.23,0.00000164,1.01,34.77,6.06194560233646,0.00232986348712785,25,gemini cationic,10.1007/s11743-017-1969-1,,,10.1007/s11743-017-1969-1,10.1007/s11743-017-1969-1,10.1007/s11743-017-1969-1,,calculated,calculated
Nonanoyl-N-methylglucamine,CCCCCCCCC(=O)N(C)CC(O)C(O)C(O)C(O)CO,"InChI=1S/C16H33NO6/c1-3-4-5-6-7-8-9-14(21)17(2)10-12(19)15(22)16(23)13(20)11-18/h12-13,15-16,18-20,22-23H,3-11H2,1-2H3",GCRLIVCNZWDCDE-UHFFFAOYSA-N,335.230787776,0.021,1.67778070526608,,,,,,,25,sugar-based non-ionic,10.1021/acs.iecr.6b02890,,10.1016/j.molliq.2018.01.037,,,,,,
"1,3-2(octylamidepropyldimethylammoniumchloride)isopropylalcohol",CCCCCCCCC(=O)NCCC[N+](C)(C)CC(O)C[N+](C)(C)CCCNC(=O)CCCCCCCC.[Cl-].[Cl-],"InChI=1S/C31H64N4O3.2ClH/c1-7-9-11-13-15-17-21-30(37)32-23-19-25-34(3,4)27-29(36)28-35(5,6)26-20-24-33-31(38)22-18-16-14-12-10-8-2;;/h29,36H,7-28H2,1-6H3;2*1H",VQWUNUCXLSNQMQ-UHFFFAOYSA-N,612.451197332,0.000541,3.26680273489343,32.3,0.00000153,1.09,39.7,3.8,0.000158,25,gemini cationic,10.1016/j.colsurfa.2018.11.061,10.1016/j.ces.2022.118208,,10.1016/j.colsurfa.2018.11.061,10.1016/j.colsurfa.2018.11.061,,10.1016/j.colsurfa.2018.11.061,10.1016/j.colsurfa.2018.11.061,10.1016/j.colsurfa.2018.11.061
,CCCCCCCCC(=O)N[N+](C)(C)CCC[N+](C)(C)NC(=O)CCCCCCCC.[Br-].[Br-],"InChI=1S/C25H52N4O2.2BrH/c1-7-9-11-13-15-17-20-24(30)26-28(3,4)22-19-23-29(5,6)27-25(31)21-18-16-14-12-10-8-2;;/h7-23H2,1-6H3;2*1H",JGXZZFJNEFMIQI-UHFFFAOYSA-N,600.261351168,0.00354,2.45099673797421,,,,,,,25,gemini cationic,10.1063/5.0051623,,,,,,,,
,CCCCCCCCC(=O)OC(C)C(=O)NCCC[N+](C)(C)C.COS(=O)(=O)[O-],"InChI=1S/C18H36N2O3.CH4O4S/c1-6-7-8-9-10-11-13-17(21)23-16(2)18(22)19-14-12-15-20(3,4)5;1-5-6(2,3)4/h16H,6-15H2,1-5H3;1H3,(H,2,3,4)",VNBFIWTWZLUABE-UHFFFAOYSA-N,440.25562262,,,37.3,,,,,,,zwitterionic,,10.1016/j.ces.2022.118208,,10.1007/s11743-000-0142-z,,,,,
,CCCCCCCCC(=O)OCC(COC(=O)CCCCCCCC)S(=O)(=O)[O-].[Na+],"InChI=1S/C21H40O7S.Na/c1-3-5-7-9-11-13-15-20(22)27-17-19(29(24,25)26)18-28-21(23)16-14-12-10-8-6-4-2;/h19H,3-18H2,1-2H3,(H,24,25,26);/q;+1/p-1",NECXBMUCCDPLDC-UHFFFAOYSA-M,458.231418868,0.0007396,3.13100309751286,,,,,,,25,anionic,10.1021/ci600462d,,,,,,,,
,CCCCCCCCC(=O)OCCCCCC[N+](C)(C)CC(O)C[N+](C)(C)CCCCCCOC(=O)CCCCCCCC.[Cl-].[Cl-],"InChI=1S/C37H76N2O5.2ClH/c1-7-9-11-13-15-21-27-36(41)43-31-25-19-17-23-29-38(3,4)33-35(40)34-39(5,6)30-24-18-20-26-32-44-37(42)28-22-16-14-12-10-8-2;;/h35,40H,7-34H2,1-6H3;2*1H/q+2;;/p-2",DDGRPLBWZKSSEE-UHFFFAOYSA-L,698.513128892,,,34,,,,,,,gemini cationic,,10.1016/j.ces.2022.118208,,10.1007/s11743-000-0121-4,,,,,
,CCCCCCCCC(=O)[O-].[K+],"InChI=1S/C9H18O2.K/c1-2-3-4-5-6-7-8-9(10)11;/h2-8H2,1H3,(H,10,11);/q;+1/p-1",WQEDQSDEIXNCCI-UHFFFAOYSA-M,196.086561464,0.39,0.408935392973501,,,,,,,25,anionic,10.1021/ci600462d,,10.1021/j150457a013,,,,,,
2-(trimethylazaniumyl)decanoate,CCCCCCCCC(C(=O)[O-])[N+](C)(C)C,"InChI=1S/C13H27NO2/c1-5-6-7-8-9-10-11-12(13(15)16)14(2,3)4/h12H,5-11H2,1-4H3",AATOGXGPMOMOQY-UHFFFAOYSA-N,229.204179104,0.097,1.01322826573376,,,,,,,27,zwitterionic,10.1002/9781118228920.ch3,,,,,,,,
sodium-decan-2-yl-sulfate,CCCCCCCCC(C)OS(=O)(=O)[O-].[Na+],"InChI=1S/C10H22O4S.Na/c1-3-4-5-6-7-8-9-10(2)14-15(11,12)13;/h10H,3-9H2,1-2H3,(H,11,12,13);/q;+1/p-1",UOCBNOYTNWINFD-UHFFFAOYSA-M,260.105824432,0.04699,1.32799455497705,,,,,,,25,anionic,10.1021/ci600462d,,10.1006/jcis.1996.4680,,,,,,
1-Methylnonyl-β-D-glucoside,CCCCCCCCC(C)O[C@@H]1O[C@H](CO)[C@@H](O)[C@H](O)[C@H]1O,"InChI=1S/C16H32O6/c1-3-4-5-6-7-8-9-11(2)21-16-15(20)14(19)13(18)12(10-17)22-16/h11-20H,3-10H2,1-2H3/t11?,12-,13-,14+,15-,16-/m1/s1",NZGZLAJIQOCLBS-DJCOPSFNSA-N,320.219888744,0.0045,2.34678748622466,28,0.00000326,0.51,43.97,3.63631527350996,0.0263492551088036,25,sugar-based non-ionic,10.1021/acs.iecr.6b02890,10.1016/j.jcis.2018.01.051,10.1016/j.molliq.2018.01.037,,,calculated,10.5650/jos1956.40.709,calculated,calculated
sodium-4-decan-2-ylbenzenesulfonate,CCCCCCCCC(C)c1ccc(S(=O)(=O)[O-])cc1.[Na+],"InChI=1S/C16H26O3S.Na/c1-3-4-5-6-7-8-9-14(2)15-10-12-16(13-11-15)20(17,18)19;/h10-14H,3-9H2,1-2H3,(H,17,18,19);/q;+1/p-1",HJIRZYHOLOBQCA-UHFFFAOYSA-M,320.14220994,0.004977,2.30303235925598,,,,,,,25,anionic,10.1021/ci600462d,,10.1006/jcis.1996.4680,,,,,,
sodium-undecan-3-ylsulfate,CCCCCCCCC(CC)OS(=O)(=O)[O-].[Na+],"InChI=1S/C11H24O4S.Na/c1-3-5-6-7-8-9-10-11(4-2)15-16(12,13)14;/h11H,3-10H2,1-2H3,(H,12,13,14);/q;+1/p-1",UXPGWVKMWGDKBT-UHFFFAOYSA-M,274.121474496,0.02891,1.53895190832934,,0.00000067,2.48,,,,25,anionic,10.1021/ci600462d,,10.1021/j100550a001,,,,10.1081/DIS-120014014,,
sodium-4-undecan-3-yl-benzenesulfonate,CCCCCCCCC(CC)c1ccc(S(=O)(=O)[O-])cc1.[Na+],"InChI=1S/C17H28O3S.Na/c1-3-5-6-7-8-9-10-15(4-2)16-11-13-17(14-12-16)21(18,19)20;/h11-15H,3-10H2,1-2H3,(H,18,19,20);/q;+1/p-1",HUKUZKXWBQJYTO-UHFFFAOYSA-M,334.157860004,0.003162,2.50003813440381,,,,,,,25,anionic,10.1021/ci600462d,,10.1016/j.theochem.2004.08.039,,,,,,
sodium-dodecane-4-sulfonate,CCCCCCCCC(CCC)S(=O)(=O)[O-].[Na+],"InChI=1S/C12H26O3S.Na/c1-3-5-6-7-8-9-11-12(10-4-2)16(13,14)15;/h12H,3-11H2,1-2H3,(H,13,14,15);/q;+1/p-1",NXTOJYRPCOIJLR-UHFFFAOYSA-M,272.14220994,0.02317,1.63507396621002,,,,,,,25,anionic,10.1021/ci600462d,,,,,,,,
sodium-4-dodecan-4-ylbenzenesulfonate,CCCCCCCCC(CCC)c1ccc(S(=O)(=O)[O-])cc1.[Na+],"InChI=1S/C18H30O3S.Na/c1-3-5-6-7-8-9-11-16(10-4-2)17-12-14-18(15-13-17)22(19,20)21;/h12-16H,3-11H2,1-2H3,(H,19,20,21);/q;+1/p-1",FKIHMDBMCCDUBP-UHFFFAOYSA-M,348.173510068,0.001901,2.72101788313456,,,,,,,25,anionic,10.1021/ci600462d,,10.1006/jcis.1996.4680,,,,,,
sodium-4-tridecan-5-ylbenzenesulfonate,CCCCCCCCC(CCCC)c1ccc(S(=O)(=O)[O-])cc1.[Na+],"InChI=1S/C19H32O3S.Na/c1-3-5-7-8-9-10-12-17(11-6-4-2)18-13-15-19(16-14-18)23(20,21)22;/h13-17H,3-12H2,1-2H3,(H,20,21,22);/q;+1/p-1",IOUKMWZWDKREQW-UHFFFAOYSA-M,362.189160132,0.002692,2.56992494444806,,,,,,,25,anionic,10.1021/ci600462d,,10.1016/j.theochem.2004.08.039,,,,,,
sodium-4-tetradecan-6-ylbenzenesulfonate,CCCCCCCCC(CCCCC)c1ccc(S(=O)(=O)[O-])cc1.[Na+],"InChI=1S/C20H34O3S.Na/c1-3-5-7-8-9-11-13-18(12-10-6-4-2)19-14-16-20(17-15-19)24(21,22)23;/h14-18H,3-13H2,1-2H3,(H,21,22,23);/q;+1/p-1",IKKGZRJVRRZHPJ-UHFFFAOYSA-M,376.204810196,0.001995,2.70005709997723,,,,,,,25,anionic,10.1021/ci600462d,,10.1016/j.theochem.2004.08.039,,,,,,
,CCCCCCCCC(CCCCCC)COCCOCCOCCOCCOCCOS(=O)(=O)[O-].[Na+],"InChI=1S/C26H54O9S.Na/c1-3-5-7-9-10-12-14-26(13-11-8-6-4-2)25-34-22-21-32-18-17-30-15-16-31-19-20-33-23-24-35-36(27,28)29;/h26H,3-25H2,1-2H3,(H,27,28,29);/q;+1/p-1",FLWFLOUDCCMYBM-UHFFFAOYSA-M,564.330798556,0.000086,4.06550154875643,,,,,,,25,anionic,10.1002/9781118228920.ch3,,,,,,,,
sodium-2-hexyldecyl-sulfate,CCCCCCCCC(CCCCCC)COS(=O)(=O)[O-].[Na+],"InChI=1S/C16H34O4S.Na/c1-3-5-7-9-10-12-14-16(13-11-8-6-4-2)15-20-21(17,18)19;/h16H,3-15H2,1-2H3,(H,17,18,19);/q;+1/p-1",SLPFSOBFHLCNBM-UHFFFAOYSA-M,344.199724816,0.004018,2.39599006758777,,,,,,,25,anionic,10.1021/ci600462d,,10.1006/jcis.1996.4680,,,,,,
Guerbet-cetyltrimethylammoniumchloride,CCCCCCCCC(CCCCCC)C[N+](C)(C)C.[Cl-],"InChI=1S/C19H42N.ClH/c1-6-8-10-12-13-15-17-19(18-20(3,4)5)16-14-11-9-7-2;/h19H,6-18H2,1-5H3;1H/q+1;/p-1",RDHQHZHKYWOVBL-UHFFFAOYSA-M,319.300578024,0.0059,2.22914798835786,26.2,0.00000142,1.17,45.8,3.74,0.00018,25,cationic,10.1007/s00396-015-3771-9,10.1016/j.ces.2022.118208,,10.1007/s00396-015-3771-9,,10.1007/s00396-015-3771-9,10.1007/s00396-015-3771-9,,
sodium-4-pentadecan-7-ylbenzenesulfonate,CCCCCCCCC(CCCCCC)c1ccc(S(=O)(=O)[O-])cc1.[Na+],"InChI=1S/C21H36O3S.Na/c1-3-5-7-9-10-12-14-19(13-11-8-6-4-2)20-15-17-21(18-16-20)25(22,23)24;/h15-19H,3-14H2,1-2H3,(H,22,23,24);/q;+1/p-1",DQMSDODRZBOQJH-UHFFFAOYSA-M,390.22046026,0.001585,2.79997073344623,,,,,,,25,anionic,10.1021/ci600462d,,10.1016/j.theochem.2004.08.039,,,,,,
sodium-hexadecan-8-yl-sulfate,CCCCCCCCC(CCCCCCC)OS(=O)(=O)[O-].[Na+],"InChI=1S/C16H34O4S.Na/c1-3-5-7-9-11-13-15-16(20-21(17,18)19)14-12-10-8-6-4-2;/h16H,3-15H2,1-2H3,(H,17,18,19);/q;+1/p-1",AXFVBAZQNRELFG-UHFFFAOYSA-M,344.199724816,0.0004898,3.3099812192113,,,,,,,25,anionic,10.1021/ci600462d,,10.1006/jcis.1996.4680,,,,,,
,CCCCCCCCC(CCCCCCCC)C[N+](C)(C)CCO.[Cl-],"InChI=1S/C22H48NO.ClH/c1-5-7-9-11-13-15-17-22(21-23(3,4)19-20-24)18-16-14-12-10-8-6-2;/h22,24H,5-21H2,1-4H3;1H/q+1;/p-1",QEUOEZHMKXTIPA-UHFFFAOYSA-M,377.342442836,,,25.3,,,,,,,cationic,,10.1016/j.ces.2022.118208,,10.1039/C5RA22115C,,,,,
sodium-heptadecan-9-yl-sulfate,CCCCCCCCC(CCCCCCCC)OS(=O)(=O)[O-].[Na+],"InChI=1S/C17H36O4S.Na/c1-3-5-7-9-11-13-15-17(21-22(18,19)20)16-14-12-10-8-6-4-2;/h17H,3-16H2,1-2H3,(H,18,19,20);/q;+1/p-1",YENCWIBAQRGAMK-UHFFFAOYSA-M,358.21537488,0.00026,3.58502665202918,,,,,,,25,anionic,10.1021/ci600462d,,10.1006/jcis.1996.4680,,,,,,
,CCCCCCCCC(O)C(O)CCCCCCCC(=O)NCCCO,"InChI=1S/C21H43NO4/c1-2-3-4-5-7-10-14-19(24)20(25)15-11-8-6-9-12-16-21(26)22-17-13-18-23/h19-20,23-25H,2-18H2,1H3,(H,22,26)",JYVFXJZRTGQALN-UHFFFAOYSA-N,373.319208856,,,39,,,,,,,non-ionic,,10.1016/j.ces.2022.118208,,,,,,,
,CCCCCCCCC(O)C(O)CCCCCCCC(=O)NCCO,"InChI=1S/C20H41NO4/c1-2-3-4-5-7-10-13-18(23)19(24)14-11-8-6-9-12-15-20(25)21-16-17-22/h18-19,22-24H,2-17H2,1H3,(H,21,25)",XUTGMKCKJJYMGA-UHFFFAOYSA-N,359.303558792,,,35,,,,,,,non-ionic,,10.1016/j.ces.2022.118208,,,,,,,
"undecane-1,3-diol",CCCCCCCCC(O)CCO,"InChI=1S/C11H24O2/c1-2-3-4-5-6-7-8-11(13)9-10-12/h11-13H,2-10H2,1H3",CSFUNXXUTSRHPN-UHFFFAOYSA-N,188.177630008,0.0023,2.63827216398241,23.4,0.0000053,0.32,48.4,3.59,0.000258,25,non-ionic,10.1021/acs.jpcb.1c05264,10.1016/j.ces.2022.118208,10.1002/9781118228920,10.1002/0471670561,10.1021/j100442a021,10.1021/j100442a021,10.1021/j100442a021,10.1021/j100442a021,
"decane-1,2-diol",CCCCCCCCC(O)CO,"InChI=1S/C10H22O2/c1-2-3-4-5-6-7-8-10(12)9-11/h10-12H,2-9H2,1H3",YSRSBDQINUMTIF-UHFFFAOYSA-N,174.161979944,0.0023,2.63827216398241,23.2,0.0000051,0.33,48.6,3.59,0.000258,25,non-ionic,10.1002/9781118228920.ch3,"['10.1016/j.ces.2022.118208', '10.1002/9781118228920.ch5']",,10.1002/0471670561,10.1002/9781118228920.ch5,10.1002/9781118228920.ch5,,,
,CCCCCCCCC(O)OCCc1ccc(S(=O)(=O)[O-])cc1.[Na+],"InChI=1S/C17H28O5S.Na/c1-2-3-4-5-6-7-8-17(18)22-14-13-15-9-11-16(12-10-15)23(19,20)21;/h9-12,17-18H,2-8,13-14H2,1H3,(H,19,20,21);/q;+1/p-1",DMMZHWYKSAZXCH-UHFFFAOYSA-M,366.147689244,0.04875,1.31202537996544,,,,,,,25,anionic,10.1021/ci600462d,,10.1016/j.theochem.2004.08.039,,,,,,
,CCCCCCCCC(O)[C@H]1OC(O)[C@H](O)[C@@H](O)[C@@H]1O,"InChI=1S/C14H28O6/c1-2-3-4-5-6-7-8-9(15)13-11(17)10(16)12(18)14(19)20-13/h9-19H,2-8H2,1H3/t9?,10-,11-,12+,13+,14?/m0/s1",JRHXHBKBMVODIN-PTQHIHJNSA-N,292.188588616,0.025,1.60205999132796,,,,,,,25,non-ionic,10.1021/ie4016232,,,,,,,,
,CCCCCCCCC1(C)OCC(C[N+](C)(C)C)O1.[Br-],"InChI=1S/C16H34NO2.BrH/c1-6-7-8-9-10-11-12-16(2)18-14-15(19-16)13-17(3,4)5;/h15H,6-14H2,1-5H3;1H/q+1;/p-1",CCCNVEMEJBPCLA-UHFFFAOYSA-M,351.177291428,0.0229,1.64016451766011,33.4,0.00000193,0.86,38.4,2.48420388413066,0.0833919177212486,25,cationic,10.1016/0927-7757(95)03093-S,10.1016/j.ces.2022.118208,,10.1016/0927-7757(95)03093-S,10.1016/0927-7757(95)03093-S,10.1016/0927-7757(95)03093-S,10.1016/0927-7757(95)03093-S,calculated,calculated
,CCCCCCCCC1OCC(C[N+](C)(C)C)O1.[Br-],"InChI=1S/C15H32NO2.BrH/c1-5-6-7-8-9-10-11-15-17-13-14(18-15)12-16(2,3)4;/h14-15H,5-13H2,1-4H3;1H/q+1;/p-1",IOOJSWIERMEORH-UHFFFAOYSA-M,337.161641364,0.0123,1.9100948885606,31.57,0.00000171,0.97,40.4,2.95645053894094,0.052003173212724,25,cationic,10.1016/0927-7757(95)03093-S,calculated,,,10.1016/0927-7757(95)03093-S,10.1016/0927-7757(95)03093-S,10.1016/0927-7757(95)03093-S,calculated,calculated