IUPAC_name,SMILES,InChI,InChIKey,Molecular_Weight,CMC,pCMC,AW_ST_CMC,Gamma_max,Area_min,Pi_CMC,PC20,C20,Temp_Celsius,Surfactant_Type,Ref_CMC,Ref_AW_ST_CMC,SubRef_CMC,SubRef_AW_ST_CMC,Ref_Gamma_max,Ref_Pi_CMC,Ref_Area_min,Ref_PC20,Ref_C20
"1,1'-(ethane1,2-diylbis(oxy))bis(2-oxoethane-1,2-diyl)bis(1-dodecylpiperidin1-ium)dibromide",CCCCCCCCCCCC[N+]1(CC(=O)OCCOC(=O)C[N+]2(CCCCCCCCCCCC)CCCCC2)CCCCC1.[Br-].[Br-],"InChI=1S/C40H78N2O4.2BrH/c1-3-5-7-9-11-13-15-17-19-23-29-41(31-25-21-26-32-41)37-39(43)45-35-36-46-40(44)38-42(33-27-22-28-34-42)30-24-20-18-16-14-12-10-8-6-4-2;;/h3-38H2,1-2H3;2*1H/q+2;;/p-2",PSGCCDIAPCEDIZ-UHFFFAOYSA-L,808.432833176,0.00056,3.2518119729938,41.6,0.00000148,1.12,30.4,3.68,0.000209,25,gemini cationic,10.1039/C5CP02115D,10.1016/j.ces.2022.118208,,10.1039/C5CP02115D,10.1039/C5CP02115D,10.1039/C5CP02115D,10.1039/C5CP02115D,,10.1039/C5CP02115D
"4,4'-((ethane-1,2-diylbis(oxy))bis(2-oxoethane-2,1-diyl))bis(4-dodecylmorpholin4-ium)dibromide",CCCCCCCCCCCC[N+]1(CC(=O)OCCOC(=O)C[N+]2(CCCCCCCCCCCC)CCOCC2)CCOCC1.[Br-].[Br-],"InChI=1S/C38H74N2O6.2BrH/c1-3-5-7-9-11-13-15-17-19-21-23-39(25-29-43-30-26-39)35-37(41)45-33-34-46-38(42)36-40(27-31-44-32-28-40)24-22-20-18-16-14-12-10-8-6-4-2;;/h3-36H2,1-2H3;2*1H/q+2;;/p-2",XKYJKENRUXTOAB-UHFFFAOYSA-L,812.391362288,0.00079,3.10237290870956,41.1,0.00000146,1.14,30.9,3.52,0.000302,25,gemini cationic,10.1039/C5CP02115D,10.1016/j.ces.2022.118208,,10.1039/C5CP02115D,10.1039/C5CP02115D,10.1039/C5CP02115D,10.1039/C5CP02115D,,10.1039/C5CP02115D
,CCCCCCCCCCCC[N+]1(CCCCCCCCCCCCCCCC[N+]2(CCCCCCCCCCCC)CCCC2)CCCC1.[Br-].[Br-],"InChI=1S/C48H98N2.2BrH/c1-3-5-7-9-11-13-21-25-29-33-41-49(45-37-38-46-49)43-35-31-27-23-19-17-15-16-18-20-24-28-32-36-44-50(47-39-40-48-50)42-34-30-26-22-14-12-10-8-6-4-2;;/h3-48H2,1-2H3;2*1H/q+2;;/p-2",CFYNRCLIBQQNJE-UHFFFAOYSA-L,860.609675336,0.00003199,4.49498575991589,,,,,,,25,gemini cationic,10.1063/5.0051623,,,,,,,,
,CCCCCCCCCCCC[N+]1(CCCCCCCCCCCCCC[N+]2(CCCCCCCCCCCC)CCCC2)CCCC1.[Br-].[Br-],"InChI=1S/C46H94N2.2BrH/c1-3-5-7-9-11-13-19-23-27-31-39-47(43-35-36-44-47)41-33-29-25-21-17-15-16-18-22-26-30-34-42-48(45-37-38-46-48)40-32-28-24-20-14-12-10-8-6-4-2;;/h3-46H2,1-2H3;2*1H/q+2;;/p-2",GQRJJZCUMFMWFW-UHFFFAOYSA-L,832.578375208,0.00006607,4.17999569319168,,,,,,,25,gemini cationic,10.1063/5.0051623,,,,,,,,
,CCCCCCCCCCCC[N+]1(CCCCCCCCCC[N+]2(CCCCCCCCCCCC)CCCC2)CCCC1.[Br-].[Br-],"InChI=1S/C42H86N2.2BrH/c1-3-5-7-9-11-13-15-19-23-27-35-43(39-31-32-40-43)37-29-25-21-17-18-22-26-30-38-44(41-33-34-42-44)36-28-24-20-16-14-12-10-8-6-4-2;;/h3-42H2,1-2H3;2*1H/q+2;;/p-2",INCDFWHQIYOPFA-UHFFFAOYSA-L,776.515774952,0.0005,3.30102999566398,,,,,,,25,gemini cationic,10.1063/5.0051623,,,,,,,,
,CCCCCCCCCCCC[N+]1(CCCCCCCC[N+]2(CCCCCCCCCCCC)CCCC2)CCCC1.[Br-].[Br-],"InChI=1S/C40H82N2.2BrH/c1-3-5-7-9-11-13-15-17-21-25-33-41(37-29-30-38-41)35-27-23-19-20-24-28-36-42(39-31-32-40-42)34-26-22-18-16-14-12-10-8-6-4-2;;/h3-40H2,1-2H3;2*1H/q+2;;/p-2",KZDGUTJBJVHUST-UHFFFAOYSA-L,748.484474824,0.0006194,3.20802879897923,,,,,,,25,gemini cationic,10.1063/5.0051623,,,,,,,,
,CCCCCCCCCCCC[N+]1(CCCCCC[N+]2(CCCCCCCCCCCC)CCCC2)CCCC1.[Br-].[Br-],"InChI=1S/C38H78N2.2BrH/c1-3-5-7-9-11-13-15-17-19-23-31-39(35-27-28-36-39)33-25-21-22-26-34-40(37-29-30-38-40)32-24-20-18-16-14-12-10-8-6-4-2;;/h3-38H2,1-2H3;2*1H/q+2;;/p-2",WAGOKHYCDKCOIV-UHFFFAOYSA-L,720.453174696,0.0007798,3.10801676914803,,,,,,,25,gemini cationic,10.1063/5.0051623,,,,,,,,
,CCCCCCCCCCCC[N+]1(CCCC[N+]2(CCCCCCCCCCCC)CCCC2)CCCC1.[Br-].[Br-],"InChI=1S/C36H74N2.2BrH/c1-3-5-7-9-11-13-15-17-19-21-29-37(31-23-24-32-37)35-27-28-36-38(33-25-26-34-38)30-22-20-18-16-14-12-10-8-6-4-2;;/h3-36H2,1-2H3;2*1H/q+2;;/p-2",GDBBVANXURQYGU-UHFFFAOYSA-L,692.421874568,0.0008299,3.08097423541264,38.1,,,33.87,,,25,gemini cationic,10.1063/5.0051623,10.1016/j.ces.2022.118208,,10.1016/j.jcis.2011.12.025,,calculated,,,
,CCCCCCCCCCCC[N+]1(CCC[N+]2(CCCCCCCCCCCC)CCCC2)CCCC1.[Br-].[Br-],"InChI=1S/C35H72N2.2BrH/c1-3-5-7-9-11-13-15-17-19-21-28-36(30-23-24-31-36)34-27-35-37(32-25-26-33-37)29-22-20-18-16-14-12-10-8-6-4-2;;/h3-35H2,1-2H3;2*1H/q+2;;/p-2",GRGIQKWNEJYFBH-UHFFFAOYSA-L,678.406224504,0.0006607,3.17999569319168,,,,,,,25,gemini cationic,10.1063/5.0051623,,,,,,,,
morpholinium-bisdodecyl-biphenylene,CCCCCCCCCCCC[N+]1(Cc2ccc(-c3ccc(C[N+]4(CCCCCCCCCCCC)CCOCC4)cc3)cc2)CCOCC1.[Cl-].[Cl-],"InChI=1S/C46H78N2O2.2ClH/c1-3-5-7-9-11-13-15-17-19-21-31-47(33-37-49-38-34-47)41-43-23-27-45(28-24-43)46-29-25-44(26-30-46)42-48(35-39-50-40-36-48)32-22-20-18-16-14-12-10-8-6-4-2;;/h23-30H,3-22,31-42H2,1-2H3;2*1H/q+2;;/p-2",ZZSIOYRIMMBJSZ-UHFFFAOYSA-L,760.544035096,0.000548,3.26121944151563,35.4,0.00000099,1.68,36.6,4.29,0.0000513,25,gemini cationic,10.1016/j.molliq.2021.115781,10.1016/j.ces.2022.118208,,10.1016/j.molliq.2021.115781,10.1016/j.molliq.2021.115781,10.1016/j.molliq.2021.115781,10.1016/j.molliq.2021.115781,10.1016/j.molliq.2021.115781,10.1016/j.molliq.2021.115781
morpholinium-bistetradecyl-phenylene,CCCCCCCCCCCC[N+]1(Cc2ccc(C[N+]3(CCCCCCCCCCCC)CCOCC3)cc2)CCOCC1.[Cl-].[Cl-],"InChI=1S/C40H74N2O2.2ClH/c1-3-5-7-9-11-13-15-17-19-21-27-41(29-33-43-34-30-41)37-39-23-25-40(26-24-39)38-42(31-35-44-36-32-42)28-22-20-18-16-14-12-10-8-6-4-2;;/h23-26H,3-22,27-38H2,1-2H3;2*1H/q+2;;/p-2",JAGGUXVRWLQZOY-UHFFFAOYSA-L,684.512734968,0.001132,2.94615357314775,38.2,0.00000131,1.26,33.8,3.3,0.000501,25,gemini cationic,10.1016/j.molliq.2021.115781,10.1016/j.ces.2022.118208,,10.1016/j.molliq.2021.115781,10.1016/j.molliq.2021.115781,10.1016/j.molliq.2021.115781,10.1016/j.molliq.2021.115781,10.1016/j.molliq.2021.115781,10.1016/j.molliq.2021.115781
,CCCCCCCCCCCC[N+]1CCCCC1.[Cl-],"InChI=1S/C17H35N.ClH/c1-2-3-4-5-6-7-8-9-10-12-15-18-16-13-11-14-17-18;/h2-17H2,1H3;1H/q+1;/p-1",UDULKSJRZFFCPT-UHFFFAOYSA-M,288.2458028,0.0156,1.80687540164554,,,,,,,25,cationic,10.1016/0021-9797(76)90178-8,,,,,,,,
,CCCCCCCCCCCC[N+]C.[Cl-],"InChI=1S/C13H28N.ClH/c1-3-4-5-6-7-8-9-10-11-12-13-14-2;/h3-13H2,1-2H3;1H/q+1;/p-1",FAEGYFGORYIHEX-UHFFFAOYSA-M,233.191027576,,,34,,,,,,,cationic,,10.1016/j.ces.2022.118208,,10.1006/jcis.1994.1186,,,,,
Dodecylisopropylolammoniumbromide,CCCCCCCCCCCC[N+]CC(C)O.[Br-],"InChI=1S/C15H32NO.BrH/c1-3-4-5-6-7-8-9-10-11-12-13-16-14-15(2)17;/h15,17H,3-14H2,1-2H3;1H/q+1;/p-1",QQSPIKNSURJZQN-UHFFFAOYSA-M,321.166726744,0.00000166,5.77989191195995,26.1,0.00000241,0.69,45.9,3.65,0.000224,25,cationic,10.1007/s11743-015-1762-y,10.1016/j.ces.2022.118208,,10.1007/s11743-015-1762-y,,10.1007/s11743-015-1762-y,10.1007/s11743-015-1762-y,,
Dodecylisopropylolammoniumchloride,CCCCCCCCCCCC[N+]CC(C)O.[Cl-],"InChI=1S/C15H32NO.ClH/c1-3-4-5-6-7-8-9-10-11-12-13-16-14-15(2)17;/h15,17H,3-14H2,1-2H3;1H/q+1;/p-1",PVKHJKBHXSROSK-UHFFFAOYSA-M,277.217242324,0.00000203,5.69250396208679,26.4,0.00000244,0.68,45.6,3.52,0.000302,25,cationic,10.1007/s11743-015-1762-y,10.1016/j.ces.2022.118208,,10.1007/s11743-015-1762-y,,10.1007/s11743-015-1762-y,10.1007/s11743-015-1762-y,,
dodecyl-bis(2-hydroxyethyl)azanium-chloride,CCCCCCCCCCCC[NH+](CCO)CCO.[Cl-],"InChI=1S/C16H35NO2.ClH/c1-2-3-4-5-6-7-8-9-10-11-12-17(13-15-18)14-16-19;/h18-19H,2-16H2,1H3;1H",QUHDWXDJUDONBI-UHFFFAOYSA-N,309.243457072,0.036,1.44369749923271,39.8,,,32.17,,,25,cationic,10.1002/9781118228920.ch3,10.1016/j.ces.2022.118208,,10.1002/0471670561,,calculated,,,
2-(dodecylamino)ethanol-hydrochloride,CCCCCCCCCCCC[NH2+]CCO.[Cl-],"InChI=1S/C14H31NO.ClH/c1-2-3-4-5-6-7-8-9-10-11-12-15-13-14-16;/h15-16H,2-14H2,1H3;1H",QNIZJBDWSTVXLN-UHFFFAOYSA-N,265.217242324,0.045,1.34678748622466,40.8,0.00000193,0.86,31,2.24,0.00577,25,cationic,10.1021/acs.jpcb.1c05264,10.1016/j.ces.2022.118208,10.1002/9781118228920,10.1002/0471670561,10.1002/9781118228920.ch5,10.1002/9781118228920.ch5,,,
"N,N-hexamethylenebis(1-dodecyl-4-carbamoylpyridiniumbromide",CCCCCCCCCCCC[n+]1ccc(C(=O)NCCCCCCNC(=O)c2cc[n+](CCCCCCCCCCCC)cc2)cc1.[Br-].[Br-],"InChI=1S/C42H70N4O2.2BrH/c1-3-5-7-9-11-13-15-17-21-25-33-45-35-27-39(28-36-45)41(47)43-31-23-19-20-24-32-44-42(48)40-29-37-46(38-30-40)34-26-22-18-16-14-12-10-8-6-4-2;;/h27-30,35-38H,3-26,31-34H2,1-2H3;2*1H",LVZNLRGBUYAOMR-UHFFFAOYSA-N,822.402201744,0.000027,4.56863623584101,44.5,0.0000019,0.72,27.5,4.81,0.0000155,25,gemini cationic,10.1016/j.cclet.2011.01.030,10.1016/j.ces.2022.118208,,10.1016/j.cclet.2011.01.030,10.1016/j.cclet.2011.01.030,,10.1016/j.cclet.2011.01.030,10.1016/j.cclet.2011.01.030,
N-(n-Dodecyl)-4-methylquinoliniumBromide,CCCCCCCCCCCC[n+]1ccc(C)c2ccccc21.[Br-],"InChI=1S/C22H34N.BrH/c1-3-4-5-6-7-8-9-10-11-14-18-23-19-17-20(2)21-15-12-13-16-22(21)23;/h12-13,15-17,19H,3-11,14,18H2,1-2H3;1H/q+1;/p-1",VWVPGNMREBDIBC-UHFFFAOYSA-M,391.187462188,0.0043,2.36653154442041,42.3,0.00000196,0.85,29.7,2.83,0.00148,25,cationic,10.1021/jo0006425,10.1016/j.ces.2022.118208,,10.1021/jo0006425,10.1021/jo0006425,,10.1021/jo0006425,10.1021/jo0006425,10.1021/jo0006425
N-(n-Dodecyl)-4-methylquinoliniumchloride,CCCCCCCCCCCC[n+]1ccc(C)c2ccccc21.[Cl-],"InChI=1S/C22H34N.ClH/c1-3-4-5-6-7-8-9-10-11-14-18-23-19-17-20(2)21-15-12-13-16-22(21)23;/h12-13,15-17,19H,3-11,14,18H2,1-2H3;1H/q+1;/p-1",HEQZSTJCXVSOSQ-UHFFFAOYSA-M,347.237977768,0.00776,2.11013827874181,47.2,0.0000018,0.92,24.8,3.52,0.000302,25,cationic,10.1016/j.jcis.2009.09.009,10.1016/j.ces.2022.118208,,10.1016/j.jcis.2009.09.009,10.1016/j.jcis.2009.09.009,,10.1016/j.jcis.2009.09.009,,10.1016/j.jcis.2009.09.009
N-(n-Dodecyl)-4-methylpyridiniumBromide,CCCCCCCCCCCC[n+]1ccc(C)cc1.[Br-],"InChI=1S/C18H32N.BrH/c1-3-4-5-6-7-8-9-10-11-12-15-19-16-13-18(2)14-17-19;/h13-14,16-17H,3-12,15H2,1-2H3;1H/q+1;/p-1",NLKXNSKWJQLETD-UHFFFAOYSA-M,341.171812124,0.0088,2.05551732784983,40.7,0.00000243,0.68,31.3,2.5,0.003162,25,cationic,10.1021/jo0006425,10.1016/j.ces.2022.118208,,10.1021/jo0006425,10.1021/jo0006425,,10.1021/jo0006425,10.1021/jo0006425,10.1021/jo0006425
1-dodecyl-4-methylpyridin-1-ium-chloride,CCCCCCCCCCCC[n+]1ccc(C)cc1.[Cl-],"InChI=1S/C18H32N.ClH/c1-3-4-5-6-7-8-9-10-11-12-15-19-16-13-18(2)14-17-19;/h13-14,16-17H,3-12,15H2,1-2H3;1H/q+1;/p-1",QPDSALLMZSDJIM-UHFFFAOYSA-M,297.222327704,0.0162,1.79048498545737,44.2,0.0000027,0.62,27.77,2.09,0.00813,25,cationic,10.1016/j.jcis.2009.09.009,,,,10.1016/j.jcis.2009.09.009,calculated,10.1016/j.jcis.2009.09.009,,10.1016/j.jcis.2009.09.009
,CCCCCCCCCCCC[n+]1ccc(C=Nc2cc[n+](CCCCCCCCCCCC)cc2)cc1.[Br-].[Br-],"InChI=1S/C35H59N3.2BrH/c1-3-5-7-9-11-13-15-17-19-21-27-37-29-23-34(24-30-37)33-36-35-25-31-38(32-26-35)28-22-20-18-16-14-12-10-8-6-4-2;;/h23-26,29-33H,3-22,27-28H2,1-2H3;2*1H/q+2;;/p-2",VXJFZQQCUYLUKV-UHFFFAOYSA-L,679.307573088,,,28.7,,,,,,,gemini cationic,,10.1016/j.ces.2022.118208,,10.1007/s11743-016-1824-9,,,,,
1-Dodecyl-3-(hydroxymethyl)pyridin-1-iumbromide,CCCCCCCCCCCC[n+]1cccc(CO)c1.[Br-],"InChI=1S/C18H32NO.BrH/c1-2-3-4-5-6-7-8-9-10-11-14-19-15-12-13-18(16-19)17-20;/h12-13,15-16,20H,2-11,14,17H2,1H3;1H/q+1;/p-1",XOLZEOXDQSVMCT-UHFFFAOYSA-M,357.166726744,0.00447,2.34969247686806,29.5,0.00000842,1.97,42.28,2.58372568945065,0.0754922188633716,25,cationic,10.1016/j.molliq.2019.111480,10.1016/j.ces.2022.118208,,10.1016/j.molliq.2019.111480,10.1016/j.molliq.2019.111480,10.1016/j.molliq.2019.111480,10.1016/j.molliq.2019.111480,calculated,calculated
"3,3′-(((2-(2-((1-dodecylpyridin-1-ium3-yl)methoxy)-2-oxoethyl)-2hydroxysuccinyl)bis(oxy))bis(methylene))bis(1-dodecylpyridin-1-ium)bromide",CCCCCCCCCCCC[n+]1cccc(COC(=O)CC(O)(CC(=O)OCc2ccc[n+](CCCCCCCCCCCC)c2)C(=O)OCc2ccc[n+](CCCCCCCCCCCC)c2)c1.[Br-].[Br-].[Br-],"InChI=1S/C60H98N3O7.3BrH/c1-4-7-10-13-16-19-22-25-28-31-40-61-43-34-37-54(48-61)51-68-57(64)46-60(67,59(66)70-53-56-39-36-45-63(50-56)42-33-30-27-24-21-18-15-12-9-6-3)47-58(65)69-52-55-38-35-44-62(49-55)41-32-29-26-23-20-17-14-11-8-5-2;;;/h34-39,43-45,48-50,67H,4-33,40-42,46-47,51-53H2,1-3H3;3*1H/q+3;;;/p-3",BZJQVVOFPVMORE-UHFFFAOYSA-K,1209.495488776,0.000209,3.67985371388895,30.1,0.000000859,1.93,42.2,6.25,0.000000562,25,gemini cationic,10.1016/j.molliq.2020.112817,10.1016/j.ces.2022.118208,,10.1016/j.molliq.2020.112817,10.1016/j.molliq.2020.112817,10.1016/j.molliq.2020.112817,10.1016/j.molliq.2020.112817,10.1016/j.molliq.2020.112817,
,CCCCCCCCCCCC[n+]1cccc(NC(=O)Nc2ccc[n+](CCCCCCCCCCCC)c2)c1.[Br-].[Br-],"InChI=1S/C35H59N4O.2BrH/c1-3-5-7-9-11-13-15-17-19-21-27-38-29-23-25-33(31-38)36-35(40)37-34-26-24-30-39(32-34)28-22-20-18-16-14-12-10-8-6-4-2;;/h23-26,29-32H,3-22,27-28H2,1-2H3,(H-,36,37,40);2*1H/q+1;;/p-1",RHANAQRJFNPJGN-UHFFFAOYSA-M,710.31338674,0.000167,3.77728352885242,30.7,,,41.3,,,25,gemini cationic,10.1007/s11743-016-1850-7,10.1007/s11743-016-1850-7,10.1007/s11743-016-1850-7,,,,,10.1007/s11743-016-1850-7,10.1007/s11743-016-1850-7
1-dodecylpyridin-1-ium-bromide,CCCCCCCCCCCC[n+]1ccccc1.[Br-],"InChI=1S/C17H30N.BrH/c1-2-3-4-5-6-7-8-9-10-12-15-18-16-13-11-14-17-18;/h11,13-14,16-17H,2-10,12,15H2,1H3;1H/q+1;/p-1",PNXWPUCNFMVBBK-UHFFFAOYSA-M,327.15616206,0.0114,1.94309514866353,38.9,0.0000033,0.5,32.9,2.46,0.00345,25,cationic,10.1021/acs.jpcb.1c05264,10.1016/j.ces.2022.118208,10.1002/9781118228920,10.1002/0471670561,10.1002/9781118228920.ch5,10.1002/9781118228920.ch5,,,
1-dodecylpyridin-1-ium-chloride,CCCCCCCCCCCC[n+]1ccccc1.[Cl-],"InChI=1S/C17H30N.ClH/c1-2-3-4-5-6-7-8-9-10-12-15-18-16-13-11-14-17-18;/h11,13-14,16-17H,2-10,12,15H2,1H3;1H/q+1;/p-1",GKQHIYSTBXDYNQ-UHFFFAOYSA-M,283.20667764,0.017,1.76955107862173,43.7,0.0000027,0.62,28.3,2.07,0.0085,25,cationic,10.1021/acs.jpcb.1c05264,,10.1002/9781118228920,,10.1002/9781118228920.ch5,10.1002/9781118228920.ch5,,,10.1002/9781118228920.ch5
1-dodecylpyridin-1-ium-iodide,CCCCCCCCCCCC[n+]1ccccc1.[I-],"InChI=1S/C17H30N.HI/c1-2-3-4-5-6-7-8-9-10-12-15-18-16-13-11-14-17-18;/h11,13-14,16-17H,2-10,12,15H2,1H3;1H/q+1;/p-1",GZNACENTEXAZDR-UHFFFAOYSA-M,375.14229796,0.0053,2.27572413039921,,,,,,,25,cationic,10.1021/acs.jpcb.1c05264,,10.1002/9781118228920,,,,,,
1-dodecyl-2-[12-(1-dodecylpyridin-1-ium-2-yl)dodecyl]pyridin-1-ium-methanesulfonate,CCCCCCCCCCCC[n+]1ccccc1CCCCCCCCCCCCc1cccc[n+]1CCCCCCCCCCCC.CS(=O)(=O)[O-].CS(=O)(=O)[O-],"InChI=1S/C46H82N2.2CH4O3S/c1-3-5-7-9-11-13-19-23-27-33-41-47-43-35-31-39-45(47)37-29-25-21-17-15-16-18-22-26-30-38-46-40-32-36-44-48(46)42-34-28-24-20-14-12-10-8-6-4-2;2*1-5(2,3)4/h31-32,35-36,39-40,43-44H,3-30,33-34,37-38,41-42H2,1-2H3;2*1H3,(H,2,3,4)/q+2;;/p-2",AZHWFPPBCFZQKR-UHFFFAOYSA-L,852.608380536,0.0007413,3.13000599987826,,,,,,,25,gemini cationic,10.1063/5.0051623,,10.1002/9781119075691.ch43,,,,,,
1-dodecyl-2-[8-(1-dodecylpyridin-1-ium-2-yl)octyl]pyridin-1-ium-dichloride,CCCCCCCCCCCC[n+]1ccccc1CCCCCCCCc1cccc[n+]1CCCCCCCCCCCC.[Cl-].[Cl-],"InChI=1S/C42H74N2.2ClH/c1-3-5-7-9-11-13-15-19-23-29-37-43-39-31-27-35-41(43)33-25-21-17-18-22-26-34-42-36-28-32-40-44(42)38-30-24-20-16-14-12-10-8-6-4-2;;/h27-28,31-32,35-36,39-40H,3-26,29-30,33-34,37-38H2,1-2H3;2*1H/q+2;;/p-2",DEVFWSHBXYEHMT-UHFFFAOYSA-L,676.522905728,0.001109,2.95506845385084,,,,,,,25,gemini cationic,10.1063/5.0051623,,10.1002/9781119075691.ch43,,,,,,
1-dodecyl-2-[4-(1-dodecylpyridin-1-ium-2-yl)butyl]pyridin-1-ium-methanesulfonate,CCCCCCCCCCCC[n+]1ccccc1CCCCc1cccc[n+]1CCCCCCCCCCCC.CS(=O)(=O)[O-].CS(=O)(=O)[O-],"InChI=1S/C38H66N2.2CH4O3S/c1-3-5-7-9-11-13-15-17-19-25-33-39-35-27-23-31-37(39)29-21-22-30-38-32-24-28-36-40(38)34-26-20-18-16-14-12-10-8-6-4-2;2*1-5(2,3)4/h23-24,27-28,31-32,35-36H,3-22,25-26,29-30,33-34H2,1-2H3;2*1H3,(H,2,3,4)/q+2;;/p-2",LHFIZLIWTNENMB-UHFFFAOYSA-L,740.483180024,0.001932,2.71399287792053,,,,,,,25,gemini cationic,10.1063/5.0051623,,10.1002/9781119075691.ch43,,,,,,
1-dodecyl-2-[4-(1-dodecylpyridin-1-ium-2-yl)butyl]pyridin-1-ium-dichloride,CCCCCCCCCCCC[n+]1ccccc1CCCCc1cccc[n+]1CCCCCCCCCCCC.[Cl-].[Cl-],"InChI=1S/C38H66N2.2ClH/c1-3-5-7-9-11-13-15-17-19-25-33-39-35-27-23-31-37(39)29-21-22-30-38-32-24-28-36-40(38)34-26-20-18-16-14-12-10-8-6-4-2;;/h23-24,27-28,31-32,35-36H,3-22,25-26,29-30,33-34H2,1-2H3;2*1H/q+2;;/p-2",TXFSTWVXCOYENI-UHFFFAOYSA-L,620.460305472,0.001279,2.89312945552135,,,,,,,25,gemini cationic,10.1063/5.0051623,,10.3390/pr7080502,,,,,,
1-dodecyl-2-[3-(1-dodecylpyridin-1-ium-2-yl)propyl]pyridin-1-ium-methanesulfonate,CCCCCCCCCCCC[n+]1ccccc1CCCc1cccc[n+]1CCCCCCCCCCCC.CS(=O)(=O)[O-].CS(=O)(=O)[O-],"InChI=1S/C37H64N2.2CH4O3S/c1-3-5-7-9-11-13-15-17-19-23-32-38-34-25-21-28-36(38)30-27-31-37-29-22-26-35-39(37)33-24-20-18-16-14-12-10-8-6-4-2;2*1-5(2,3)4/h21-22,25-26,28-29,34-35H,3-20,23-24,27,30-33H2,1-2H3;2*1H3,(H,2,3,4)/q+2;;/p-2",HYBKROLXCOWSHN-UHFFFAOYSA-L,726.46752996,0.002089,2.68006156001969,,,,,,,25,gemini cationic,10.1063/5.0051623,,10.1002/9781119075691.ch43,,,,,,
1-dodecyl-2-[3-(1-dodecylpyridin-1-ium-2-yl)propyl]pyridin-1-ium-dibromide,CCCCCCCCCCCC[n+]1ccccc1CCCc1cccc[n+]1CCCCCCCCCCCC.[Br-].[Br-],"InChI=1S/C37H64N2.2BrH/c1-3-5-7-9-11-13-15-17-19-23-32-38-34-25-21-28-36(38)30-27-31-37-29-22-26-35-39(37)33-24-20-18-16-14-12-10-8-6-4-2;;/h21-22,25-26,28-29,34-35H,3-20,23-24,27,30-33H2,1-2H3;2*1H/q+2;;/p-2",YPAWRWOBZDYHRQ-UHFFFAOYSA-L,694.343624248,0.0008375,3.07701518429112,,,,,,,25,gemini cationic,10.1063/5.0051623,,,,,,,,
1-dodecyl-2-[3-(1-dodecylpyridin-1-ium-2-yl)propyl]pyridin-1-ium-dichloride,CCCCCCCCCCCC[n+]1ccccc1CCCc1cccc[n+]1CCCCCCCCCCCC.[Cl-].[Cl-],"InChI=1S/C37H64N2.2ClH/c1-3-5-7-9-11-13-15-17-19-23-32-38-34-25-21-28-36(38)30-27-31-37-29-22-26-35-39(37)33-24-20-18-16-14-12-10-8-6-4-2;;/h21-22,25-26,28-29,34-35H,3-20,23-24,27,30-33H2,1-2H3;2*1H/q+2;;/p-2",CCOSQZHBNAHSQV-UHFFFAOYSA-L,606.444655408,0.00151,2.82102305270683,,,,,,,25,gemini cationic,10.1063/5.0051623,,10.1002/9781119075691.ch43,,,,,,
,CCCCCCCCCCCC[n+]1ccccc1CCc1cccc[n+]1CCCCCCCCCCCC.CS(=O)(=O)[O-].CS(=O)(=O)[O-],"InChI=1S/C36H62N2.2CH4O3S/c1-3-5-7-9-11-13-15-17-19-23-31-37-33-25-21-27-35(37)29-30-36-28-22-26-34-38(36)32-24-20-18-16-14-12-10-8-6-4-2;2*1-5(2,3)4/h21-22,25-28,33-34H,3-20,23-24,29-32H2,1-2H3;2*1H3,(H,2,3,4)/q+2;;/p-2",XODUKBSFUFFAFM-UHFFFAOYSA-L,712.451879896,0.00207,2.68402965454308,,,,,,,25,gemini cationic,10.1063/5.0051623,,10.1002/9781119075691.ch43,,,,,,
4-(n-Dodecyl)-N-methylpyridiniumBromide,CCCCCCCCCCCCc1cc[n+](C)cc1.[Br-],"InChI=1S/C18H32N.BrH/c1-3-4-5-6-7-8-9-10-11-12-13-18-14-16-19(2)17-15-18;/h14-17H,3-13H2,1-2H3;1H/q+1;/p-1",UDPAZAYQCQPRNL-UHFFFAOYSA-M,341.171812124,0.0047,2.32790214206428,39.7,0.00000294,0.56,32.3,2.72,0.001905,25,cationic,10.1021/jo0006425,10.1016/j.ces.2022.118208,,10.1021/jo0006425,10.1021/jo0006425,,10.1021/jo0006425,10.1021/jo0006425,10.1021/jo0006425
,CCCCCCCCCCCCc1cc[n+](C2OC(CO)C(O)C(O)C2O)cc1.[Br-],"InChI=1S/C23H40NO5.BrH/c1-2-3-4-5-6-7-8-9-10-11-12-18-13-15-24(16-14-18)23-22(28)21(27)20(26)19(17-25)29-23;/h13-16,19-23,25-28H,2-12,17H2,1H3;1H/q+1;/p-1",FSQAVCVIMOKRPI-UHFFFAOYSA-M,489.20898548,,,39.2,,,,,,,cationic,,10.1016/j.ces.2022.118208,,10.1021/jo0006425,,,,,
4-dodecylpyridin-1-ium-bromide,CCCCCCCCCCCCc1cc[nH+]cc1.[Br-],"InChI=1S/C17H29N.BrH/c1-2-3-4-5-6-7-8-9-10-11-12-17-13-15-18-16-14-17;/h13-16H,2-12H2,1H3;1H",HUQASMIUEJRISG-UHFFFAOYSA-N,327.15616206,0.0114,1.94309514866353,,,,,,,25,cationic,10.1002/9781118228920.ch3,,,,,,,,
,CCCCCCCCCCCCc1cc[nH+]cc1.[Cl-],"InChI=1S/C17H29N.ClH/c1-2-3-4-5-6-7-8-9-10-11-12-17-13-15-18-16-14-17;/h13-16H,2-12H2,1H3;1H",ILIQTXYKKLVZTF-UHFFFAOYSA-N,283.20667764,0.017,1.76955107862173,,,,,,,25,cationic,10.1002/9781118228920.ch3,,,,,,,,
,CCCCCCCCCCCCc1cc[nH+]cc1.[I-],"InChI=1S/C17H29N.HI/c1-2-3-4-5-6-7-8-9-10-11-12-17-13-15-18-16-14-17;/h13-16H,2-12H2,1H3;1H",KHGXPQDIEAEMAJ-UHFFFAOYSA-N,375.14229796,0.0053,2.27572413039921,,,,,,,25,cationic,10.1002/9781118228920.ch3,,,,,,,,
,CCCCCCCCCCCCc1ccc(C[C@H](Nc2ccc(S(=O)(=O)[O-])cc2)C(=O)O)cc1.[Na+],"InChI=1S/C27H39NO5S.Na/c1-2-3-4-5-6-7-8-9-10-11-12-22-13-15-23(16-14-22)21-26(27(29)30)28-24-17-19-25(20-18-24)34(31,32)33;/h13-20,26,28H,2-12,21H2,1H3,(H,29,30)(H,31,32,33);/q;+1/p-1/t26-;/m0./s1",FOEDYGVILDWNEG-SNYZSRNZSA-M,511.236838596,0.00006295,4.20100426555612,,,,,,,25,anionic,10.1021/ci600462d,,,,,,,,