IUPAC_name,SMILES,InChI,InChIKey,Molecular_Weight,CMC,pCMC,AW_ST_CMC,Gamma_max,Area_min,Pi_CMC,PC20,C20,Temp_Celsius,Surfactant_Type,Ref_CMC,Ref_AW_ST_CMC,SubRef_CMC,SubRef_AW_ST_CMC,Ref_Gamma_max,Ref_Pi_CMC,Ref_Area_min,Ref_PC20,Ref_C20
,CCCCCCCCCOCCS(=O)(=O)[O-].[Na+],"InChI=1S/C11H24O4S.Na/c1-2-3-4-5-6-7-8-9-15-10-11-16(12,13)14;/h2-11H2,1H3,(H,12,13,14);/q;+1/p-1",VZCCZSPOGMAIFB-UHFFFAOYSA-M,274.121474496,0.00159,2.79860287567955,,,,,,,25,anionic,10.1002/9781118228920.ch3,,,,,,,,
,CCCCCCCCCOCOC1[CH][C@H](O)[C@@H](O)C(O)O1,"InChI=1S/C15H29O6/c1-2-3-4-5-6-7-8-9-19-11-20-13-10-12(16)14(17)15(18)21-13/h10,12-18H,2-9,11H2,1H3/t12-,13?,14+,15?/m0/s1",WLQDZJQNJMRJTI-FGZQJIAISA-N,305.196413648,0.001799,2.74496883665445,,,,,,,25,non-ionic,10.1021/ie4016232,,,,,,,,
,CCCCCCCCCOOCCOCCOCCOCCOCCOCCOCCOCC,"InChI=1S/C25H52O9/c1-3-5-6-7-8-9-10-11-33-34-25-24-32-23-22-31-21-20-30-19-18-29-17-16-28-15-14-27-13-12-26-4-2/h3-25H2,1-2H3",APLSDAXBESLDBL-UHFFFAOYSA-N,496.361133244,0.00302,2.51999305704285,,,,,,,25,non-ionic,10.1021/ie4016232,,,,,,,,
sodium-nonyl-sulfate,CCCCCCCCCOS(=O)(=O)[O-].[Na+],"InChI=1S/C9H20O4S.Na/c1-2-3-4-5-6-7-8-9-13-14(10,11)12;/h2-9H2,1H3,(H,10,11,12);/q;+1/p-1",FTWCSAMTIKSPAT-UHFFFAOYSA-M,246.090174368,0.05998,1.22199353857649,,,,,,,25,anionic,10.1021/ci600462d,,10.1016/j.theochem.2004.08.039,,,,,,
2-Amino-2-deoxy-nonyl-β-D-glucoside,CCCCCCCCCO[C@@H]1O[C@H](CO)[C@@H](O)[C@H](O)[C@H]1N,"InChI=1S/C15H31NO5/c1-2-3-4-5-6-7-8-9-20-15-12(16)14(19)13(18)11(10-17)21-15/h11-15,17-19H,2-10,16H2,1H3/t11-,12-,13-,14-,15-/m1/s1",WLCSSUPWTZZYPR-KJWHEZOQSA-N,305.220223092,0.007,2.15490195998574,30.2,0.00000361,0.46,41.77,3.21266004847595,0.0402494053767172,25,sugar-based non-ionic,10.1021/acs.iecr.6b02890,10.1016/j.jcis.2018.01.051,10.1016/j.molliq.2018.01.037,,10.1021/la950485i,calculated,10.1021/la950485i,calculated,calculated
"N,N'-bis(nonyldimethyl)-3-methyl-1,5-pentanediammoniumdibromide",CCCCCCCCC[N+](C)(C)CCCCC[N+](C)(C)CCCCCCCCC.[Br-].[Br-],"InChI=1S/C27H60N2.2BrH/c1-7-9-11-13-15-17-20-24-28(3,4)26-22-19-23-27-29(5,6)25-21-18-16-14-12-10-8-2;;/h7-27H2,1-6H3;2*1H/q+2;;/p-2",IVOQWGJWBNVWKB-UHFFFAOYSA-L,570.31232412,0.00415,2.38195190328791,39.7,0.00000128,1.3,32.3,2.94301402584179,0.0527066299501598,25,gemini cationic,"['10.1016/j.chemosphere.2011.05.031', '10.1016/0021-9797(86)90417-0', '10.1016/0021-9797(86)90417-0']",10.1016/j.ces.2022.118208,,10.1016/0021-9797(86)90417-0,10.1016/0021-9797(86)90417-0,,,calculated,calculated
,CCCCCCCCC[N+](C)(C)CCCCNC[N+](C)(C)CCCCCCCCC.[Br-].[Br-],"InChI=1S/C27H61N3.2BrH/c1-7-9-11-13-15-17-20-24-29(3,4)25-22-19-23-28-27-30(5,6)26-21-18-16-14-12-10-8-2;;/h28H,7-27H2,1-6H3;2*1H/q+2;;/p-2",RJMSJJCQRHQVQR-UHFFFAOYSA-L,585.323223152,0.0180011396041801,1.7447,,,,,,,25,gemini cationic,10.1016/j.chemosphere.2011.05.031,,,,,,,,
,CCCCCCCCC[N+](C)(C)CCCCO[N+](C)(C)CCCCCCCCC.[Br-].[Br-],"InChI=1S/C26H58N2O.2BrH/c1-7-9-11-13-15-17-19-23-27(3,4)24-21-22-26-29-28(5,6)25-20-18-16-14-12-10-8-2;;/h7-26H2,1-6H3;2*1H/q+2;;/p-2",DBNDTGACGBBOOO-UHFFFAOYSA-L,572.291588676,0.0219988510904925,1.6576,,,,,,,25,gemini cationic,10.1016/j.chemosphere.2011.05.031,,,,,,,,
"N,N'-bis(nonyldimethyl)-3-N-methyl-1,5-pentanediammoniumdibromide",CCCCCCCCC[N+](C)(C)CCN(C)CC[N+](C)(C)CCCCCCCCC.[Br-].[Br-],"InChI=1S/C27H61N3.2BrH/c1-8-10-12-14-16-18-20-24-29(4,5)26-22-28(3)23-27-30(6,7)25-21-19-17-15-13-11-9-2;;/h8-27H2,1-7H3;2*1H/q+2;;/p-2",CJFHAXLEGODWNR-UHFFFAOYSA-L,585.323223152,0.015,1.82390874094432,38,0.00000166,1,34,2.31632882303687,0.0986350283821701,25,gemini cationic,10.1016/0021-9797(86)90417-0,10.1016/j.ces.2022.118208,,10.1016/0021-9797(86)90417-0,10.1016/0021-9797(86)90417-0,,,calculated,calculated
"N,N'-bis(nonyldimethyl)-3-O-1,5-pentanediammoniumdibromide",CCCCCCCCC[N+](C)(C)CCOCC[N+](C)(C)CCCCCCCCC.[Br-].[Br-],"InChI=1S/C26H58N2O.2BrH/c1-7-9-11-13-15-17-19-21-27(3,4)23-25-29-26-24-28(5,6)22-20-18-16-14-12-10-8-2;;/h7-26H2,1-6H3;2*1H/q+2;;/p-2",OVQYJXXYDSZPEY-UHFFFAOYSA-L,572.291588676,0.017,1.76955107862173,40.4,0.00000125,1.33,31.6,2.31138199866596,0.0991241673892974,25,gemini cationic,10.1016/0021-9797(86)90417-0,10.1016/j.ces.2022.118208,,10.1016/0021-9797(86)90417-0,10.1016/0021-9797(86)90417-0,,,calculated,calculated
"hexanediyl-1,6-bis[(diisopropylol)nonylammonium]dibromide",CCCCCCCCC[N+](CCCCCC[N+](CCCCCCCCC)(CC(C)O)CC(C)O)(CC(C)O)CC(C)O.[Br-].[Br-],"InChI=1S/C36H78N2O4.2BrH/c1-7-9-11-13-15-17-21-25-37(29-33(3)39,30-34(4)40)27-23-19-20-24-28-38(31-35(5)41,32-36(6)42)26-22-18-16-14-12-10-8-2;;/h33-36,39-42H,7-32H2,1-6H3;2*1H/q+2;;/p-2",WDLPYYBSSRSLAC-UHFFFAOYSA-L,760.432833176,0.000618,3.20901152491118,34.9,0.00000157,1.06,37.1,3.78,0.000166,25,gemini cationic,10.1002/jsde.12506,10.1016/j.ces.2022.118208,,10.1002/jsde.12506,10.1002/jsde.12506,10.1002/jsde.12506,10.1002/jsde.12506,10.1002/jsde.12506,
"hexanediyl-1,6-bis[(isopropylol)nonylammonium]dibromide",CCCCCCCCC[N+](CCCCCC[N+](CCCCCCCCC)CC(C)O)CC(C)O.[Br-].[Br-],"InChI=1S/C30H64N2O2.2BrH/c1-5-7-9-11-13-15-19-23-31(27-29(3)33)25-21-17-18-22-26-32(28-30(4)34)24-20-16-14-12-10-8-6-2;;/h29-30,33-34H,5-28H2,1-4H3;2*1H/q+2;;/p-2",UKJNDBQHSLTLFB-UHFFFAOYSA-L,642.333453488,0.00085,3.07058107428571,42.2,0.00000195,0.85,29.8,3.4,0.000398,25,gemini cationic,10.1002/jsde.12506,10.1016/j.ces.2022.118208,,10.1002/jsde.12506,10.1002/jsde.12506,10.1002/jsde.12506,10.1002/jsde.12506,10.1002/jsde.12506,
di-2-hydroxypropylnonylamines.,CCCCCCCCC[N+](CCCCC[N+](CCCCCCCCC)(CC(C)O)CC(C)O)(CC(C)O)CC(C)O.[Br-].[Br-],"InChI=1S/C35H76N2O4.2BrH/c1-7-9-11-13-15-17-20-24-36(28-32(3)38,29-33(4)39)26-22-19-23-27-37(30-34(5)40,31-35(6)41)25-21-18-16-14-12-10-8-2;;/h32-35,38-41H,7-31H2,1-6H3;2*1H/q+2;;/p-2",JYPCYJNMYFFMFV-UHFFFAOYSA-L,746.417183112,0.00227,2.64397414280688,28,0.00000198,1.26,44,4.04,0.0000912,25,gemini cationic,10.1016/j.colsurfa.2019.05.019,10.1016/j.ces.2022.118208,,10.1016/j.colsurfa.2019.05.019,10.1016/j.colsurfa.2019.05.019,10.1016/j.colsurfa.2019.05.019,10.1016/j.colsurfa.2019.05.019,10.1016/j.colsurfa.2019.05.019,
2-hydroxypropylnonylamines,CCCCCCCCC[N+](CCCCC[N+](CCCCCCCCC)CC(C)O)CC(C)O.[Br-].[Br-],"InChI=1S/C29H62N2O2.2BrH/c1-5-7-9-11-13-15-18-22-30(26-28(3)32)24-20-17-21-25-31(27-29(4)33)23-19-16-14-12-10-8-6-2;;/h28-29,32-33H,5-27H2,1-4H3;2*1H/q+2;;/p-2",IFOOVVSLQPBOQI-UHFFFAOYSA-L,628.317803424,0.0245,1.61083391563547,25.7,0.00000216,1.15,46.3,3.04,0.000912,25,gemini cationic,10.1016/j.colsurfa.2019.05.019,10.1016/j.ces.2022.118208,,10.1016/j.colsurfa.2019.05.019,10.1016/j.colsurfa.2019.05.019,10.1016/j.colsurfa.2019.05.019,10.1016/j.colsurfa.2019.05.019,10.1016/j.colsurfa.2019.05.019,
nonyl-tri(2-hydroxyethyl)ammoniumbromide,CCCCCCCCC[N+](CCO)(CCO)CCO.[Br-],"InChI=1S/C15H34NO3.BrH/c1-2-3-4-5-6-7-8-9-16(10-13-17,11-14-18)12-15-19;/h17-19H,2-15H2,1H3;1H/q+1;/p-1",BNXJYFBZSRWHLH-UHFFFAOYSA-M,355.172206048,0.00107,2.97061622231479,24.1,0.00000262,0.63,47.9,3.9,0.000126,25,cationic,10.1016/j.molliq.2016.11.105,10.1016/j.ces.2022.118208,,10.1016/j.molliq.2016.11.105,10.1016/j.molliq.2016.11.105,,,10.1016/j.molliq.2016.11.105,
nonyl-tri(2-hydroxyethyl)ammoniumiodide,CCCCCCCCC[N+](CCO)(CCO)CCO.[I-],"InChI=1S/C15H34NO3.HI/c1-2-3-4-5-6-7-8-9-16(10-13-17,11-14-18)12-15-19;/h17-19H,2-15H2,1H3;1H/q+1;/p-1",RFUWPSOHTKVTQR-UHFFFAOYSA-M,403.158341948,0.00095,3.02227639471115,28.4,0.00000216,0.77,43.6,4.05,0.0000891,25,cationic,10.1016/j.molliq.2016.11.105,10.1016/j.ces.2022.118208,,10.1016/j.molliq.2016.11.105,10.1016/j.molliq.2016.11.105,,,10.1016/j.molliq.2016.11.105,
nonyl-di(2-hydroxyethyl)ammoniumbromide,CCCCCCCCC[N+](CCO)CCO.[Br-],"InChI=1S/C13H29NO2.BrH/c1-2-3-4-5-6-7-8-9-14(10-12-15)11-13-16;/h15-16H,2-13H2,1H3;1H/q+1;/p-1",COCSIEQXYXSRID-UHFFFAOYSA-M,310.138166268,0.00122,2.91364016932525,27.9,0.00000227,0.73,44.1,3.8,0.000158,25,cationic,10.1016/j.molliq.2016.11.105,10.1016/j.ces.2022.118208,,10.1016/j.molliq.2016.11.105,10.1016/j.molliq.2016.11.105,,,10.1016/j.molliq.2016.11.105,
nonyl-di(2-hydroxyethyl)ammoniumiodide,CCCCCCCCC[N+](CCO)CCO.[I-],"InChI=1S/C13H29NO2.HI/c1-2-3-4-5-6-7-8-9-14(10-12-15)11-13-16;/h15-16H,2-13H2,1H3;1H/q+1;/p-1",AXIXYVBVRRAPGP-UHFFFAOYSA-M,358.124302168,0.0011,2.95860731484178,28.8,0.00000214,0.78,43.2,3.87,0.000135,25,cationic,10.1016/j.molliq.2016.11.105,10.1016/j.ces.2022.118208,,10.1016/j.molliq.2016.11.105,10.1016/j.molliq.2016.11.105,,,10.1016/j.molliq.2016.11.105,
,CCCCCCCCC[N+]1(CCC#CCC[N+]2(CCCCCCCCC)CCCC2)CCCC1.[Br-].[Br-],"InChI=1S/C32H62N2.2BrH/c1-3-5-7-9-11-13-17-25-33(29-21-22-30-33)27-19-15-16-20-28-34(31-23-24-32-34)26-18-14-12-10-8-6-4-2;;/h3-14,17-32H2,1-2H3;2*1H/q+2;;/p-2",JIFMSZPBJAWOSP-UHFFFAOYSA-L,632.327974184,0.0344032918768228,1.4634,,,,,,,25,gemini cationic,10.1016/j.chemosphere.2011.05.031,,,,,,,,
,CCCCCCCCC[N+]1(CCC#CCC[N+]2(CCCCCCCCC)CCCCC2)CCCCC1.[Br-].[Br-],"InChI=1S/C34H66N2.2BrH/c1-3-5-7-9-11-13-19-27-35(31-23-17-24-32-35)29-21-15-16-22-30-36(33-25-18-26-34-36)28-20-14-12-10-8-6-4-2;;/h3-14,17-34H2,1-2H3;2*1H/q+2;;/p-2",DRBMBOAUPULEPP-UHFFFAOYSA-L,660.359274312,0.047796929697961,1.3206,,,,,,,25,gemini cationic,10.1016/j.chemosphere.2011.05.031,,,,,,,,
nonyl-(2-hydroxyethyl)ammoniumbromide,CCCCCCCCC[N+]CCO.[Br-],"InChI=1S/C11H24NO.BrH/c1-2-3-4-5-6-7-8-9-12-10-11-13;/h13H,2-11H2,1H3;1H/q+1;/p-1",UPNVFSLKYLGPOE-UHFFFAOYSA-M,265.104126488,0.00145,2.83863199776503,30,0.00000145,1.15,42,4.4,0.0000398,25,cationic,10.1016/j.molliq.2016.11.105,10.1016/j.ces.2022.118208,,10.1016/j.molliq.2016.11.105,10.1016/j.molliq.2016.11.105,,,10.1016/j.molliq.2016.11.105,
nonyl-(2-hydroxyethyl)ammoniumiodide,CCCCCCCCC[N+]CCO.[I-],"InChI=1S/C11H24NO.HI/c1-2-3-4-5-6-7-8-9-12-10-11-13;/h13H,2-11H2,1H3;1H/q+1;/p-1",FQOHEDODFVKANB-UHFFFAOYSA-M,313.090262388,0.00215,2.66756154008439,30.6,0.00000153,1.09,41.4,4.27,0.0000537,25,cationic,10.1016/j.molliq.2016.11.105,10.1016/j.ces.2022.118208,,10.1016/j.molliq.2016.11.105,10.1016/j.molliq.2016.11.105,,,10.1016/j.molliq.2016.11.105,
,CCCCCCCCCc1ccc(OCC(C)OCC(C)OCC(C)OCC(C)OCC(C)OCC(C)OCC(C)OCC(C)OCC(C)OCC(C)OCC(C)OCC(C)OS(=O)[O-])cc1.[Na+],"InChI=1S/C51H96O15S.Na/c1-14-15-16-17-18-19-20-21-50-22-24-51(25-23-50)65-36-48(12)63-34-46(10)61-32-44(8)59-30-42(6)57-28-40(4)55-26-38(2)54-27-39(3)56-29-41(5)58-31-43(7)60-33-45(9)62-35-47(11)64-37-49(13)66-67(52)53;/h22-25,38-49H,14-21,26-37H2,1-13H3,(H,52,53);/q;+1/p-1",MECWOGJCVDVFBJ-UHFFFAOYSA-M,1002.62893762,0.000012,4.92081875395238,36.9,0.00000097,1.708,35.07,6.28,0.00187340059422242,25,anionic,10.1016/j.colsurfa.2014.03.012,10.1016/j.colsurfa.2014.03.012,,,10.1016/j.colsurfa.2014.03.012,calculated,10.1016/j.colsurfa.2014.03.012,10.1016/j.colsurfa.2014.03.012,calculated
,CCCCCCCCCc1ccc(OCC(C)OCC(C)OCC(C)OCC(C)OCC(C)OCC(C)OCC(C)OCC(C)OCC(C)OS(=O)[O-])cc1.[Na+],"InChI=1S/C42H78O12S.Na/c1-11-12-13-14-15-16-17-18-41-19-21-42(22-20-41)53-30-39(9)51-28-37(7)49-26-35(5)47-24-33(3)45-23-32(2)46-25-34(4)48-27-36(6)50-29-38(8)52-31-40(10)54-55(43)44;/h19-22,32-40H,11-18,23-31H2,1-10H3,(H,43,44);/q;+1/p-1",LUENWSNNOSVXJQ-UHFFFAOYSA-M,828.503343184,0.000016,4.79588001734408,33.7,0.00000117,1.414,38.27,6.17,0.00209123600051511,25,anionic,10.1016/j.colsurfa.2014.03.012,10.1016/j.colsurfa.2014.03.012,,,10.1016/j.colsurfa.2014.03.012,calculated,10.1016/j.colsurfa.2014.03.012,10.1016/j.colsurfa.2014.03.012,calculated
,CCCCCCCCCc1ccc(OCC(C)OCC(C)OCC(C)OCC(C)OCC(C)OCC(C)OS(=O)[O-])cc1.[Na+],"InChI=1S/C33H60O9S.Na/c1-8-9-10-11-12-13-14-15-32-16-18-33(19-17-32)41-24-30(6)39-22-28(4)37-20-26(2)36-21-27(3)38-23-29(5)40-25-31(7)42-43(34)35;/h16-19,26-31H,8-15,20-25H2,1-7H3,(H,34,35);/q;+1/p-1",CCWIZPUDYNZVKW-UHFFFAOYSA-M,654.377748748,0.00003,4.52287874528034,34.1,0.00000129,1.288,37.87,5.73,0.00324707723361059,25,anionic,10.1016/j.colsurfa.2014.03.012,10.1016/j.colsurfa.2014.03.012,,,10.1016/j.colsurfa.2014.03.012,calculated,10.1016/j.colsurfa.2014.03.012,10.1016/j.colsurfa.2014.03.012,calculated
,CCCCCCCCCc1ccc(OCC(C)OCC(C)OCC(C)OS(=O)[O-])cc1.[Na+],"InChI=1S/C24H42O6S.Na/c1-5-6-7-8-9-10-11-12-23-13-15-24(16-14-23)29-18-21(3)27-17-20(2)28-19-22(4)30-31(25)26;/h13-16,20-22H,5-12,17-19H2,1-4H3,(H,25,26);/q;+1/p-1",RUNJCCHRQXFILQ-UHFFFAOYSA-M,480.252154312,0.000059,4.22914798835786,34.4,0.00000166,1.001,37.57,5.17,0.0056845688192196,25,anionic,10.1016/j.colsurfa.2014.03.012,10.1016/j.colsurfa.2014.03.012,,,10.1016/j.colsurfa.2014.03.012,calculated,10.1016/j.colsurfa.2014.03.012,10.1016/j.colsurfa.2014.03.012,calculated
,CCCCCCCCCc1ccc(OCC(O)C[N+](C)(C)C)cc1.[Br-],"InChI=1S/C21H38NO2.BrH/c1-5-6-7-8-9-10-11-12-19-13-15-21(16-14-19)24-18-20(23)17-22(2,3)4;/h13-16,20,23H,5-12,17-18H2,1-4H3;1H/q+1;/p-1",SEZCMAJMNRDGGI-UHFFFAOYSA-M,415.208591556,,,29.5,,,,,,,cationic,,10.1016/j.ces.2022.118208,,10.1002/cjoc.200590957,,,,,
,CCCCCCCCCc1ccccc1CCOCCOCCOCCOCCOCCOCCO,"InChI=1S/C29H52O7/c1-2-3-4-5-6-7-8-11-28-12-9-10-13-29(28)14-16-31-18-20-33-22-24-35-26-27-36-25-23-34-21-19-32-17-15-30/h9-10,12-13,30H,2-8,11,14-27H2,1H3",CIBFIEDNTRCFGW-UHFFFAOYSA-N,512.371304004,0.000075,4.1249387366083,,,,,,,25,non-ionic,10.1002/9781118228920.ch3,,,,,,,,
,CCCCCCCCCc1ccccc1OOCCOCC,"InChI=1S/C19H32O3/c1-3-5-6-7-8-9-10-13-18-14-11-12-15-19(18)22-21-17-16-20-4-2/h11-12,14-15H,3-10,13,16-17H2,1-2H3",OMNYBHNZYOJSIF-UHFFFAOYSA-N,308.235144884,0.0004198,3.37695756575362,,,,,,,25,non-ionic,10.1021/ie4016232,,,,,,,,
,CCCCCCCCCc1ccccc1OOCCOCCOCCOCCOCC,"InChI=1S/C25H44O6/c1-3-5-6-7-8-9-10-13-24-14-11-12-15-25(24)31-30-23-22-29-21-20-28-19-18-27-17-16-26-4-2/h11-12,14-15H,3-10,13,16-23H2,1-2H3",DVQLHHRTSOXZEL-UHFFFAOYSA-N,440.313789128,0.0004699,3.32799455497705,,,,,,,25,non-ionic,10.1021/ie4016232,,,,,,,,
,CCCCCCCCCc1ccccc1OOCCOCCOCCOCCOCCOCCOCCOCCOCCOCCOCCOCC,"InChI=1S/C39H72O13/c1-3-5-6-7-8-9-10-13-38-14-11-12-15-39(38)52-51-37-36-50-35-34-49-33-32-48-31-30-47-29-28-46-27-26-45-25-24-44-23-22-43-21-20-42-19-18-41-17-16-40-4-2/h11-12,14-15H,3-10,13,16-37H2,1-2H3",GGCLTSRNMKEGEI-UHFFFAOYSA-N,748.497292364,0.0005,3.30102999566398,,,,,,,25,non-ionic,10.1021/ie4016232,,,,,,,,
,CCCCCCCCCn1cc[n+](COCCCCCCOC[n+]2ccn(CCCCCCCCC)c2)c1.[Cl-].[Cl-],"InChI=1S/C32H60N4O2.2ClH/c1-3-5-7-9-11-13-17-21-33-23-25-35(29-33)31-37-27-19-15-16-20-28-38-32-36-26-24-34(30-36)22-18-14-12-10-8-6-4-2;;/h23-26,29-30H,3-22,27-28,31-32H2,1-2H3;2*1H/q+2;;/p-2",DDSOTBWAYKUDDX-UHFFFAOYSA-L,602.40933252,0.0011220184543019,2.95000000000002,33.3,0.00000222,0.8,38.7,3.44181802407714,0.0320064439160948,25,gemini cationic,10.1111/cbdd.12236,10.1111/cbdd.12236,10.1111/cbdd.12236,,10.1111/cbdd.12236,10.1111/cbdd.12236,10.1111/cbdd.12236,calculated,calculated
,CCCCCCCCCn1cc[n+](COCCCCCOC[n+]2ccn(CCCCCCCCC)c2)c1.[Cl-].[Cl-],"InChI=1S/C31H58N4O2.2ClH/c1-3-5-7-9-11-13-16-20-32-22-24-34(28-32)30-36-26-18-15-19-27-37-31-35-25-23-33(29-35)21-17-14-12-10-8-6-4-2;;/h22-25,28-29H,3-21,26-27,30-31H2,1-2H3;2*1H/q+2;;/p-2",GIUBMWPUEFRLHX-UHFFFAOYSA-L,588.393682456,0.0012302687708123,2.91000000000003,44,0.00000236,0.74,27.97,3.10792187318977,0.0446937381551656,25,gemini cationic,10.1111/cbdd.12236,10.1111/cbdd.12236,10.1111/cbdd.12236,,10.1111/cbdd.12236,calculated,10.1111/cbdd.12236,calculated,calculated
,CCCCCCCCCn1cc[n+](COCCCCOC[n+]2ccn(CCCCCCCCC)c2)c1.[Cl-].[Cl-],"InChI=1S/C30H56N4O2.2ClH/c1-3-5-7-9-11-13-15-19-31-21-23-33(27-31)29-35-25-17-18-26-36-30-34-24-22-32(28-34)20-16-14-12-10-8-6-4-2;;/h21-24,27-28H,3-20,25-26,29-30H2,1-2H3;2*1H/q+2;;/p-2",WVADXACFMWBYBM-UHFFFAOYSA-L,574.378032392,0.0013182567385564,2.88,45.2,0.00000239,0.72,26.8,3.0461218734806,0.0475429448885012,25,gemini cationic,10.1111/cbdd.12236,10.1111/cbdd.12236,10.1111/cbdd.12236,,10.1111/cbdd.12236,10.1111/cbdd.12236,10.1111/cbdd.12236,calculated,calculated
,CCCCCCCCCn1cc[n+](COCCCOC[n+]2ccn(CCCCCCCCC)c2)c1.[Cl-].[Cl-],"InChI=1S/C29H54N4O2.2ClH/c1-3-5-7-9-11-13-15-18-30-20-22-32(26-30)28-34-24-17-25-35-29-33-23-21-31(27-33)19-16-14-12-10-8-6-4-2;;/h20-23,26-27H,3-19,24-25,28-29H2,1-2H3;2*1H/q+2;;/p-2",FKDXMWKUCNVFMT-UHFFFAOYSA-L,560.362382328,0.0014454397707459,2.84000000000001,46.4,0.00000242,0.7,25.6,2.97511030351631,0.0510418036032173,25,gemini cationic,10.1111/cbdd.12236,10.1111/cbdd.12236,10.1111/cbdd.12236,,10.1111/cbdd.12236,10.1111/cbdd.12236,10.1111/cbdd.12236,calculated,calculated
,CCCCCCCCCn1cc[n+](COCCOC[n+]2ccn(CCCCCCCCC)c2)c1.[Cl-].[Cl-],"InChI=1S/C28H52N4O2.2ClH/c1-3-5-7-9-11-13-15-17-29-19-21-31(25-29)27-33-23-24-34-28-32-22-20-30(26-32)18-16-14-12-10-8-6-4-2;;/h19-22,25-26H,3-18,23-24,27-28H2,1-2H3;2*1H/q+2;;/p-2",QRKDGPIVYIYQRP-UHFFFAOYSA-L,546.346732264,0.0015488166189124,2.81000000000002,47.5,0.00000245,0.68,24.5,2.91724134149365,0.0540826773374357,25,gemini cationic,10.1111/cbdd.12236,10.1111/cbdd.12236,10.1111/cbdd.12236,,10.1111/cbdd.12236,10.1111/cbdd.12236,10.1111/cbdd.12236,calculated,calculated
"N,N-bisoctyl-N,N-bis[(3-gluconylamide)propyl]ethylenediamines",CCCCCCCCN(CCCNC(=O)C(O)C(O)C(O)C(O)CO)CCN(CCCCCCCC)CCCNC(=O)C(O)C(O)C(O)C(O)CO,"InChI=1S/C36H74N4O12/c1-3-5-7-9-11-13-19-39(21-15-17-37-35(51)33(49)31(47)29(45)27(43)25-41)23-24-40(20-14-12-10-8-6-4-2)22-16-18-38-36(52)34(50)32(48)30(46)28(44)26-42/h27-34,41-50H,3-26H2,1-2H3,(H,37,51)(H,38,52)",VLRJGGWTTMOUGH-UHFFFAOYSA-N,754.530323808,0.000067,4.17392519729917,28.2,0.00000258,0.64,43.6,5.8,0.00000158,25,non-ionic,10.1016/j.jcis.2003.09.020,10.1016/j.ces.2022.118208,,10.1016/j.jcis.2003.09.020,10.1016/j.jcis.2003.09.020,,10.1016/j.jcis.2003.09.020,10.1016/j.jcis.2003.09.020,
,CCCCCCCCN(CCC[N+](C)(C)CCCCCCCC)C(=[N+])N(C)C.[Cl-].[Cl-],"InChI=1S/C24H52N4.2ClH/c1-7-9-11-13-15-17-20-27(24(25)26(3)4)21-19-23-28(5,6)22-18-16-14-12-10-8-2;;/h7-23H2,1-6H3;2*1H/q+2;;/p-2",AQTAAHIOGQQVCQ-UHFFFAOYSA-L,466.356903024,,,28.1,,,,,,,gemini cationic,,10.1016/j.ces.2022.118208,,10.1016/j.colsurfa.2012.11.004,,,,,
"N,N-dimethyl-N,N-bis[2-octaneoxycarbonyl)ethyl]ammoniumbromides",CCCCCCCCNC(=O)CC[N+](C)(C)CCC(=O)NCCCCCCCC.[Br-],"InChI=1S/C24H49N3O2.BrH/c1-5-7-9-11-13-15-19-25-23(28)17-21-27(3,4)22-18-24(29)26-20-16-14-12-10-8-6-2;/h5-22H2,1-4H3,(H-,25,26,28,29);1H",BOJBSKKBVSDRER-UHFFFAOYSA-N,491.30863994,0.003,2.52287874528034,25,0.00000339,0.49,47,3.22042198419905,0.0399382014143075,25,cationic,10.1016/j.colsurfa.2015.01.050,10.1016/j.ces.2022.118208,,10.1016/j.colsurfa.2015.01.050,,,10.1016/j.colsurfa.2015.01.050,calculated,calculated
,CCCCCCCCNCC(=O)NCOCC(CO)OCC(O)COCCCCCCCCNCC(=O)NCOCC(CO)OCC(O)COCC,"InChI=1S/C36H74N4O12/c1-3-5-6-7-10-13-16-37-19-35(45)40-30-50-28-34(22-42)52-26-32(44)24-48-18-15-12-9-8-11-14-17-38-20-36(46)39-29-49-27-33(21-41)51-25-31(43)23-47-4-2/h31-34,37-38,41-44H,3-30H2,1-2H3,(H,39,46)(H,40,45)",CRLAUGKKIGTQOD-UHFFFAOYSA-N,754.530323808,0.00006699,4.1739900222089,,,,,,,25,non-ionic,10.1021/ie4016232,,,,,,,,
"1-O-octanoyl-D,L-xylitol",CCCCCCCCOC(=O)C([C@@H](O)C(O)[C@@H](O)CO)[C@@H](O)CO,"InChI=1S/C16H32O8/c1-2-3-4-5-6-7-8-24-16(23)13(11(19)9-17)15(22)14(21)12(20)10-18/h11-15,17-22H,2-10H2,1H3/t11-,12-,13?,14?,15+/m0/s1",KMEYHMHQACZXAK-APSKQVOWSA-N,352.209717984,0.018,1.74472749489669,28.6,,,43.37,,,25,sugar-based non-ionic,10.1021/acs.iecr.6b02890,10.1016/j.jcis.2018.01.051,10.1016/j.molliq.2018.01.037,,,calculated,,,
Arginine-N-dodecylamidedihydrochloride,CCCCCCCCOC(=O)C([N+])CCCNC([N+])N.[Cl-].[Cl-],"InChI=1S/C14H28N4O2.2ClH/c1-2-3-4-5-6-7-11-20-13(19)12(15)9-8-10-18-14(16)17;;/h12,14,18H,2-11,16H2,1H3;2*1H/q+2;;/p-2",BJUMRGJHWZJGFP-UHFFFAOYSA-L,354.158931496,0.026,1.58502665202918,35,0.00000115,0.96,37,2.44813812511314,0.0864544040255706,25,gemini cationic,10.1016/j.crci.2004.02.009,10.1016/j.ces.2022.118208,,10.1016/j.crci.2004.02.009,10.1016/j.crci.2004.02.009,10.1016/j.crci.2004.02.009,10.1016/j.crci.2004.02.009,calculated,calculated
"sodium-1,4-dioctoxy-1,4-dioxobutane-2-sulfonate",CCCCCCCCOC(=O)CC(C(=O)OCCCCCCCC)S(=O)(=O)[O-].[Na+],"InChI=1S/C20H38O7S.Na/c1-3-5-7-9-11-13-15-26-19(21)17-18(28(23,24)25)20(22)27-16-14-12-10-8-6-4-2;/h18H,3-17H2,1-2H3,(H,23,24,25);/q;+1/p-1",RCIJACVHOIKRAP-UHFFFAOYSA-M,444.215768804,0.00091,3.04095860767891,,,,,,,25,anionic,10.1021/acs.jpcb.1c05264,,10.1002/9781118228920,,,,,,