IUPAC_name,SMILES,InChI,InChIKey,Molecular_Weight,CMC,pCMC,AW_ST_CMC,Gamma_max,Area_min,Pi_CMC,PC20,C20,Temp_Celsius,Surfactant_Type,Ref_CMC,Ref_AW_ST_CMC,SubRef_CMC,SubRef_AW_ST_CMC,Ref_Gamma_max,Ref_Pi_CMC,Ref_Area_min,Ref_PC20,Ref_C20
[3-({6-[(3-oleamidopropyl)-dimethyl-amino]-hexyl}-dimethyl-amino)-propyl]-amidedibromid,CCCCCCCCC=CCCCCCCCC(=O)NCCC[N+](C)(C)CCCCCC[N+](C)(C)CCCNC(=O)CCCCCCCC=CCCCCCCCC.[Br-].[Br-],"InChI=1S/C52H102N4O2.2BrH/c1-7-9-11-13-15-17-19-21-23-25-27-29-31-33-37-43-51(57)53-45-41-49-55(3,4)47-39-35-36-40-48-56(5,6)50-42-46-54-52(58)44-38-34-32-30-28-26-24-22-20-18-16-14-12-10-8-2;;/h21-24H,7-20,25-50H2,1-6H3;2*1H",ISNBIYJWHRLPLJ-UHFFFAOYSA-N,974.652602768,0.000077,4.11350927482752,30.3,0.00000238,0.7,41.66,4.64586090139227,0.0096012603622421,25,gemini cationic,10.1007/s11743-017-1969-1,10.1016/j.ces.2022.118208,,10.1007/s11743-017-1969-1,10.1007/s11743-017-1969-1,10.1007/s11743-017-1969-1,10.1007/s11743-017-1969-1,calculated,calculated
3-({4-[(3-Oleamidopropyl)-dimethyl-amino]-butyl}-dimethyl-amino)-propyl]-amidedibromide,CCCCCCCCC=CCCCCCCCC(=O)NCCC[N+](C)(C)CCCC[N+](C)(C)CCCNC(=O)CCCCCCCC=CCCCCCCCC.[Br-].[Br-],"InChI=1S/C50H98N4O2.2BrH/c1-7-9-11-13-15-17-19-21-23-25-27-29-31-33-35-41-49(55)51-43-39-47-53(3,4)45-37-38-46-54(5,6)48-40-44-52-50(56)42-36-34-32-30-28-26-24-22-20-18-16-14-12-10-8-2;;/h21-24H,7-20,25-48H2,1-6H3;2*1H",CKGGZQTTZNWEOA-UHFFFAOYSA-N,946.62130264,0.000105,3.97881070093006,32.9,0.00000226,0.73,38.88,4.47225795512811,0.0114214974843034,25,gemini cationic,10.1007/s11743-017-1969-1,10.1016/j.ces.2022.118208,,10.1007/s11743-017-1969-1,10.1007/s11743-017-1969-1,10.1007/s11743-017-1969-1,10.1007/s11743-017-1969-1,calculated,calculated
POE(20) sorbitan monooleate,CCCCCCCCC=CCCCCCCCC(=O)OCCOCC(OCCO)C1OC(OCCO)CC1OCCO,"InChI=1S/C32H60O10/c1-2-3-4-5-6-7-8-9-10-11-12-13-14-15-16-17-30(36)40-25-24-37-27-29(39-22-19-34)32-28(38-21-18-33)26-31(42-32)41-23-20-35/h9-10,28-29,31-35H,2-8,11-27H2,1H3",RGPBUVUVZKQNHD-UHFFFAOYSA-N,604.41864812,0.00001,5,,,,,,,24.85,non-ionic,10.1007/s11743-001-0184-2,,,,,,,,
,CCCCCCCCC=COOCCOCCOCCOCCOCCOCC,"InChI=1S/C22H44O7/c1-3-5-6-7-8-9-10-11-12-28-29-22-21-27-20-19-26-18-17-25-16-15-24-14-13-23-4-2/h11-12H,3-10,13-22H2,1-2H3",NNGBFCMDABVPKF-UHFFFAOYSA-N,420.308703748,0.002838,2.54698760887855,,,,,,,25,non-ionic,10.1021/ie4016232,,,,,,,,
,CCCCCCCCC=COOCCOCCOCCOCCOCCOCCOCCOCCOCC,"InChI=1S/C28H56O10/c1-3-5-6-7-8-9-10-11-12-37-38-28-27-36-26-25-35-24-23-34-22-21-33-20-19-32-18-17-31-16-15-30-14-13-29-4-2/h11-12H,3-10,13-28H2,1-2H3",WYUVJGKWXMKHEA-UHFFFAOYSA-N,552.387347992,0.002979,2.52592949678496,,,,,,,25,non-ionic,10.1021/ie4016232,,,,,,,,
3-oxo-N-(2-oxooxolan-3-yl)dodecanamide,CCCCCCCCCC(=O)CC(=O)NC1CCOC1=O,"InChI=1S/C16H27NO4/c1-2-3-4-5-6-7-8-9-13(18)12-15(19)17-14-10-11-21-16(14)20/h14H,2-12H2,1H3,(H,17,19)",PHSRRHGYXQCRPU-UHFFFAOYSA-N,297.194008344,0.000097,4.01322826573376,43.8,0.00000376,0.44,28.2,6.01,0.000000977,25,sugar-based non-ionic,10.1021/acs.jpcb.1c05264,,10.1002/9781118228920,10.1006/jcis.2001.7704,10.1006/jcis.2001.7704,10.1006/jcis.2001.7704,10.1006/jcis.2001.7704,10.1006/jcis.2001.7704,
Decanoyl-N-methylglucamine,CCCCCCCCCC(=O)N(C)CC(O)C(O)C(O)C(O)CO,"InChI=1S/C17H35NO6/c1-3-4-5-6-7-8-9-10-15(22)18(2)11-13(20)16(23)17(24)14(21)12-19/h13-14,16-17,19-21,23-24H,3-12H2,1-2H3",UMWKZHPREXJQGR-UHFFFAOYSA-N,349.24643784,0.0067,2.17392519729917,,,,,,,25,sugar-based non-ionic,10.1021/acs.iecr.6b02890,,10.1016/j.molliq.2018.01.037,,,,,,
α-N-octyl-arginine-methylesterhydrochloride,CCCCCCCCCC(=O)NC(CCCNC([N+])N)C(=O)OC.[Cl-],"InChI=1S/C17H34N4O3.ClH/c1-3-4-5-6-7-8-9-12-15(22)21-14(16(23)24-2)11-10-13-20-17(18)19;/h14,17,20H,3-13,18H2,1-2H3,(H,21,22);1H/q+1;/p-1",OCCPZSUCMJQSRI-UHFFFAOYSA-M,377.231943628,0.016,1.79588001734408,40,0.00000248,0.67,32,2.21965628614953,0.108646445696181,25,cationic,10.1016/j.crci.2004.02.009,10.1016/j.ces.2022.118208,,10.1016/j.crci.2004.02.009,,10.1016/j.crci.2004.02.009,10.1016/j.crci.2004.02.009,calculated,calculated
N-decanoyl-N-methyllactitolamine,CCCCCCCCCC(=O)NC(O)[C@H]1O[C@@H](O[C@@H]([C@H](O)[C@@H](O)CO)[C@H](O)CO)[C@H](O)[C@@H](O)[C@H]1O,"InChI=1S/C22H43NO12/c1-2-3-4-5-6-7-8-9-14(28)23-21(33)20-17(31)16(30)18(32)22(35-20)34-19(13(27)11-25)15(29)12(26)10-24/h12-13,15-22,24-27,29-33H,2-11H2,1H3,(H,23,28)/t12-,13+,15+,16-,17+,18+,19+,20-,21?,22+/m0/s1",QPJPEEFDMWZCTO-NRMQJZHZSA-N,513.278525816,0.0033,2.48148606012211,40.3,0.00000329,0.504,31.67,3.06,0.0468876952199885,25,sugar-based non-ionic,10.1021/acs.iecr.6b02890,10.1016/j.jcis.2018.01.051,10.1016/j.molliq.2018.01.037,,10.1007/s11743-001-0169-1,calculated,,10.1007/s11743-001-0169-1,calculated
"1,3-bis(N'-nonyl-N,N-dimethylhydrazinium)propanedibromide",CCCCCCCCCC(=O)N[N+](C)(C)CCC[N+](C)(C)NC(=O)CCCCCCCCC.[Br-].[Br-],"InChI=1S/C27H56N4O2.2BrH/c1-7-9-11-13-15-17-19-22-26(32)28-30(3,4)24-21-25-31(5,6)29-27(33)23-20-18-16-14-12-10-8-2;;/h7-25H2,1-6H3;2*1H",HBFTXAVCPCIJPF-UHFFFAOYSA-N,628.292651296,0.00354,2.45099673797421,33.2,0.00000178,0.93,38.8,3.03,0.000933,25,gemini cationic,10.5650/jos.59.647,10.1016/j.ces.2022.118208,,10.5650/jos.59.647,10.5650/jos.59.647,,10.5650/jos.59.647,,
,CCCCCCCCCC(=O)OC(C)C(=O)NCCCN(C)C,"InChI=1S/C18H36N2O3/c1-5-6-7-8-9-10-11-13-17(21)23-16(2)18(22)19-14-12-15-20(3)4/h16H,5-15H2,1-4H3,(H,19,22)",NYDUTWQZXWIAKG-UHFFFAOYSA-N,328.272593012,,,33,,,,,,,non-ionic,,10.1016/j.ces.2022.118208,,10.1007/s11743-000-0142-z,,,,,
,CCCCCCCCCC(=O)OC(C)C(=O)NCCC[N+](C)(C)C.COS(=O)(=O)[O-],"InChI=1S/C19H38N2O3.CH4O4S/c1-6-7-8-9-10-11-12-14-18(22)24-17(2)19(23)20-15-13-16-21(3,4)5;1-5-6(2,3)4/h17H,6-16H2,1-5H3;1H3,(H,2,3,4)",FZQLMAJMWGQBNE-UHFFFAOYSA-N,454.271272684,,,25.4,,,,,,,zwitterionic,,10.1016/j.ces.2022.118208,,10.1007/s11743-000-0142-z,,,,,
,CCCCCCCCCC(=O)OCC(C)[N+](C)(C)CC(O)CN(CCCCCC)CC(O)C[N+](C)(C)C(C)COC(=O)CCCCCCCCC.[Cl-].[Cl-],"InChI=1S/C42H87N3O6.2ClH/c1-10-13-16-19-21-23-25-28-41(48)50-35-37(4)44(6,7)33-39(46)31-43(30-27-18-15-12-3)32-40(47)34-45(8,9)38(5)36-51-42(49)29-26-24-22-20-17-14-11-2;;/h37-40,46-47H,10-36H2,1-9H3;2*1H/q+2;;/p-2",FOTGGAHCKJYDFA-UHFFFAOYSA-L,799.597192864,0.008414,2.07499749231902,,,,,,,25,gemini cationic,10.1063/5.0051623,,10.1002/9781119075691.ch43,,,,,,
,CCCCCCCCCC(=O)OCC(C)[N+](C)(C)CC(O)CN(CCCCCCCC)CC(O)C[N+](C)(C)C(C)COC(=O)CCCCCCCCC.[Cl-].[Cl-],"InChI=1S/C44H91N3O6.2ClH/c1-10-13-16-19-22-24-27-30-43(50)52-37-39(4)46(6,7)35-41(48)33-45(32-29-26-21-18-15-12-3)34-42(49)36-47(8,9)40(5)38-53-44(51)31-28-25-23-20-17-14-11-2;;/h39-42,48-49H,10-38H2,1-9H3;2*1H/q+2;;/p-2",WNCFIGLUSWSZER-UHFFFAOYSA-L,827.628492992,0.00007834,4.10601643278815,,,,,,,25,gemini cationic,10.1063/5.0051623,,,,,,,,
"2,3,4,5-tetrahydroxypentyl-decanoat",CCCCCCCCCC(=O)OCC(O)C(O)C(O)CO,"InChI=1S/C15H30O6/c1-2-3-4-5-6-7-8-9-14(19)21-11-13(18)15(20)12(17)10-16/h12-13,15-18,20H,2-11H2,1H3",SPDVSBZLQSVXPN-UHFFFAOYSA-N,306.20423868,0.058,1.23657200643706,,,,,,,25,sugar-based non-ionic,10.1021/acs.jpcb.1c05264,,10.1002/9781118228920,,,,,,
,CCCCCCCCCC(=O)OCC1OC(OCCC[N+](C)(C)C)C(O)C(O)C1O.[I-],"InChI=1S/C22H44NO7.HI/c1-5-6-7-8-9-10-11-13-18(24)29-16-17-19(25)20(26)21(27)22(30-17)28-15-12-14-23(2,3)4;/h17,19-22,25-27H,5-16H2,1-4H3;1H/q+1;/p-1",SHGBERJUANUZIB-UHFFFAOYSA-M,561.216250748,,,33.8,,,,,,,cationic,,10.1016/j.ces.2022.118208,,10.1007/s11743-998-0005-7,,,,,
bis{2-hydroxy-3-[3-(decanoyloxy)propyldimethylammonio]propyl}butylaminedichloride,CCCCCCCCCC(=O)OCCC[N+](C)(C)CC(O)CN(CCCC)CC(O)C[N+](C)(C)CCCOC(=O)CCCCCCCCC.[Cl-].[Cl-],"InChI=1S/C40H83N3O6.2ClH/c1-8-11-14-16-18-20-22-26-39(46)48-31-24-29-42(4,5)35-37(44)33-41(28-13-10-3)34-38(45)36-43(6,7)30-25-32-49-40(47)27-23-21-19-17-15-12-9-2;;/h37-38,44-45H,8-36H2,1-7H3;2*1H/q+2;;/p-2",RGVSMAREYXBZOJ-UHFFFAOYSA-L,771.565892736,0.00078,3.10790539730952,38,0.00000114,1.46,35.3,5.31,0.000000794,25,gemini cationic,10.1007/s11743-015-1749-8,10.1016/j.ces.2022.118208,,10.1007/s11743-015-1749-8,10.1007/s11743-015-1749-8,10.1007/s11743-015-1749-8,10.1007/s11743-015-1749-8,10.1007/s11743-015-1749-8,
bis{2-hydroxy-3-[3-(decanoyloxy)propyldimethylammonio]propyl}pentylaminedichloride,CCCCCCCCCC(=O)OCCC[N+](C)(C)CC(O)CN(CCCCC)CC(O)C[N+](C)(C)CCCOC(=O)CCCCCCCCC.[Cl-].[Cl-],"InChI=1S/C41H85N3O6.2ClH/c1-8-11-14-16-18-20-22-27-40(47)49-32-25-30-43(4,5)36-38(45)34-42(29-24-13-10-3)35-39(46)37-44(6,7)31-26-33-50-41(48)28-23-21-19-17-15-12-9-2;;/h38-39,45-46H,8-37H2,1-7H3;2*1H/q+2;;/p-2",JIYWFFKXTREEIZ-UHFFFAOYSA-L,785.5815428,0.000282,3.54975089168064,36,0.00000102,1.62,33.3,5.7,0.00000186,25,gemini cationic,10.1007/s11743-015-1749-8,10.1016/j.ces.2022.118208,,10.1007/s11743-015-1749-8,10.1007/s11743-015-1749-8,10.1007/s11743-015-1749-8,10.1007/s11743-015-1749-8,10.1007/s11743-015-1749-8,
bis{2-hydroxy-3-[3-(decanoyloxy)propyldimethylammonio]propyl}hexylaminedichloride,CCCCCCCCCC(=O)OCCC[N+](C)(C)CC(O)CN(CCCCCC)CC(O)C[N+](C)(C)CCCOC(=O)CCCCCCCCC.[Cl-].[Cl-],"InChI=1S/C42H87N3O6.2ClH/c1-8-11-14-17-19-21-23-28-41(48)50-33-26-31-44(4,5)37-39(46)35-43(30-25-16-13-10-3)36-40(47)38-45(6,7)32-27-34-51-42(49)29-24-22-20-18-15-12-9-2;;/h39-40,46-47H,8-38H2,1-7H3;2*1H/q+2;;/p-2",NZNLAHZRPKCVLK-UHFFFAOYSA-L,799.597192864,0.0000596,4.22475374025976,39,0.000000934,1.77,36.3,5.73,0.000002,25,gemini cationic,10.1007/s11743-015-1749-8,10.1016/j.ces.2022.118208,,10.1007/s11743-015-1749-8,10.1007/s11743-015-1749-8,10.1007/s11743-015-1749-8,10.1007/s11743-015-1749-8,10.1007/s11743-015-1749-8,
bis{2-hydroxy-3-[3-(decanoyloxy)propyldimethylammonio]propyl}octylaminedichloride,CCCCCCCCCC(=O)OCCC[N+](C)(C)CC(O)CN(CCCCCCCC)CC(O)C[N+](C)(C)CCCOC(=O)CCCCCCCCC.[Cl-].[Cl-],"InChI=1S/C44H91N3O6.2ClH/c1-8-11-14-17-20-22-25-30-43(50)52-35-28-33-46(4,5)39-41(48)37-45(32-27-24-19-16-13-10-3)38-42(49)40-47(6,7)34-29-36-53-44(51)31-26-23-21-18-15-12-9-2;;/h41-42,48-49H,8-40H2,1-7H3;2*1H/q+2;;/p-2",PTTZXJBCTDEYLO-UHFFFAOYSA-L,827.628492992,0.0000282,4.54975089168064,37,0.000000873,1.9,34.3,6.1,0.0000049,25,gemini cationic,10.1007/s11743-015-1749-8,10.1016/j.ces.2022.118208,,10.1007/s11743-015-1749-8,10.1007/s11743-015-1749-8,10.1007/s11743-015-1749-8,10.1007/s11743-015-1749-8,10.1007/s11743-015-1749-8,
sodium-4-undecan-2-ylbenzenesulfonate,CCCCCCCCCC(C)c1ccc(S(=O)(=O)[O-])cc1.[Na+],"InChI=1S/C17H28O3S.Na/c1-3-4-5-6-7-8-9-10-15(2)16-11-13-17(14-12-16)21(18,19)20;/h11-15H,3-10H2,1-2H3,(H,18,19,20);/q;+1/p-1",MGTLTWIVDSLGTB-UHFFFAOYSA-M,334.157860004,0.001901,2.72101788313456,,,,,,,25,anionic,10.1021/ci600462d,,10.1006/jcis.1996.4680,,,,,,
sodium-dodecane-3-sulfonate,CCCCCCCCCC(CC)S(=O)(=O)[O-].[Na+],"InChI=1S/C12H26O3S.Na/c1-3-5-6-7-8-9-10-11-12(4-2)16(13,14)15;/h12H,3-11H2,1-2H3,(H,13,14,15);/q;+1/p-1",YZSGJXCGQVBJPC-UHFFFAOYSA-M,272.14220994,0.01862,1.73002032335468,,,,,,,25,anionic,10.1021/ci600462d,,,,,,,,
sodium-4-dodecan-3-ylbenzenesulfonate,CCCCCCCCCC(CC)c1ccc(S(=O)(=O)[O-])cc1.[Na+],"InChI=1S/C18H30O3S.Na/c1-3-5-6-7-8-9-10-11-16(4-2)17-12-14-18(15-13-17)22(19,20)21;/h12-16H,3-11H2,1-2H3,(H,19,20,21);/q;+1/p-1",HOXWFOVSCUWIEH-UHFFFAOYSA-M,348.173510068,0.002477,2.60607399341416,,,,,,,25,anionic,10.1021/ci600462d,,10.1006/jcis.1996.4680,,,,,,
,CCCCCCCCCC(CCCC)OS(=O)(=O)[O-].[Na+],"InChI=1S/C14H30O4S.Na/c1-3-5-7-8-9-10-11-13-14(12-6-4-2)18-19(15,16)17;/h14H,3-13H2,1-2H3,(H,15,16,17);/q;+1/p-1",BGJXARRBURWIBO-UHFFFAOYSA-M,316.168424688,0.006745,2.17101804599208,,,,,,,25,anionic,10.1021/ci600462d,,10.1006/jcis.1996.4680,,,,,,
sodium-4-tetradecan-5-ylbenzenesulfonate,CCCCCCCCCC(CCCC)c1ccc(S(=O)(=O)[O-])cc1.[Na+],"InChI=1S/C20H34O3S.Na/c1-3-5-7-8-9-10-11-13-18(12-6-4-2)19-14-16-20(17-15-19)24(21,22)23;/h14-18H,3-13H2,1-2H3,(H,21,22,23);/q;+1/p-1",HKNHOXMZULQSDS-UHFFFAOYSA-M,376.204810196,0.00166,2.77989191195995,,,,,,,25,anionic,10.1021/ci600462d,,10.1016/j.theochem.2004.08.039,,,,,,
sodium-2-pentylundecyl-sulfate,CCCCCCCCCC(CCCCC)COS(=O)(=O)[O-].[Na+],"InChI=1S/C16H34O4S.Na/c1-3-5-7-8-9-10-12-14-16(13-11-6-4-2)15-20-21(17,18)19;/h16H,3-15H2,1-2H3,(H,17,18,19);/q;+1/p-1",JBKLJEFTCHUXPY-UHFFFAOYSA-M,344.199724816,0.002999,2.52302353424047,,,,,,,25,anionic,10.1021/ci600462d,,10.1006/jcis.1996.4680,,,,,,
sodium-4-pentadecan-6-ylbenzenesulfonate,CCCCCCCCCC(CCCCC)c1ccc(S(=O)(=O)[O-])cc1.[Na+],"InChI=1S/C21H36O3S.Na/c1-3-5-7-8-9-10-12-14-19(13-11-6-4-2)20-15-17-21(18-16-20)25(22,23)24;/h15-19H,3-14H2,1-2H3,(H,22,23,24);/q;+1/p-1",PVPXMHJRFLJKQW-UHFFFAOYSA-M,390.22046026,0.001259,2.89997426989214,,,,,,,25,anionic,10.1021/ci600462d,,10.1016/j.theochem.2004.08.039,,,,,,
sodium-nonadecan-10-ylsulfate,CCCCCCCCCC(CCCCCCCCC)OS(=O)(=O)[O-].[Na+],"InChI=1S/C19H40O4S.Na/c1-3-5-7-9-11-13-15-17-19(23-24(20,21)22)18-16-14-12-10-8-6-4-2;/h19H,3-18H2,1-2H3,(H,20,21,22);/q;+1/p-1",NDCORKBQGDAFNT-UHFFFAOYSA-M,386.246675008,0.0003304,3.48095996135166,,0.000000434,3.83,,,,25,anionic,10.1021/ci600462d,,10.1006/jcis.1996.4680,,,,10.1081/DIS-120014014,,
,CCCCCCCCCC(CCCCCCCC[N+](C)(C)CCCCCC[N+](C)(C)CCCCCCCCC(CCCCCCCCC)c1cc(C)cc(C)c1)c1cc(C)cc(C)c1.[Br-].[Br-],"InChI=1S/C62H114N2.2BrH/c1-11-13-15-17-19-25-33-41-59(61-51-55(3)49-56(4)52-61)43-35-27-21-23-29-37-45-63(7,8)47-39-31-32-40-48-64(9,10)46-38-30-24-22-28-36-44-60(42-34-26-20-18-16-14-12-2)62-53-57(5)50-58(6)54-62;;/h49-54,59-60H,11-48H2,1-10H3;2*1H/q+2;;/p-2",VEVREVBZJPRFRO-UHFFFAOYSA-L,1044.734875848,,,44.7,,,,,,,gemini cationic,,10.1016/j.ces.2022.118208,,10.1039/c9sm01086f,,,,,
,CCCCCCCCCC(CCCCCCCC[N+](C)(C)CCC[N+](C)(C)CCCCCCCCC(CCCCCCCCC)c1cc(C)cc(C)c1)c1cc(C)cc(C)c1.[Br-].[Br-],"InChI=1S/C59H108N2.2BrH/c1-11-13-15-17-19-25-31-38-56(58-48-52(3)46-53(4)49-58)40-33-27-21-23-29-35-42-60(7,8)44-37-45-61(9,10)43-36-30-24-22-28-34-41-57(39-32-26-20-18-16-14-12-2)59-50-54(5)47-55(6)51-59;;/h46-51,56-57H,11-45H2,1-10H3;2*1H/q+2;;/p-2",BVYOHIDQJJMEAF-UHFFFAOYSA-L,1002.687925656,,,45.8,,,,,,,gemini cationic,,10.1016/j.ces.2022.118208,,10.1039/c9sm01086f,,,,,
,CCCCCCCCCC(CCS(=O)(=O)[O-])OC(C)C.[Na+],"InChI=1S/C15H32O4S.Na/c1-4-5-6-7-8-9-10-11-15(19-14(2)3)12-13-20(16,17)18;/h14-15H,4-13H2,1-3H3,(H,16,17,18);/q;+1/p-1",YJLOBVPNCGYLGP-UHFFFAOYSA-M,330.184074752,0.003483,2.45804652554176,,,,,,,25,anionic,10.1021/ci600462d,,10.1006/jcis.1996.4680,,,,,,
,CCCCCCCCCC(CCS(=O)(=O)[O-])OC(CC)CCCCC.[Na+],"InChI=1S/C20H42O4S.Na/c1-4-7-9-10-11-12-14-16-20(17-18-25(21,22)23)24-19(6-3)15-13-8-5-2;/h19-20H,4-18H2,1-3H3,(H,21,22,23);/q;+1/p-1",YINBNSHRTPJDIN-UHFFFAOYSA-M,400.262325072,0.0003155,3.50100063641985,,,,,,,25,anionic,10.1021/ci600462d,,10.1006/jcis.1996.4680,,,,,,
,CCCCCCCCCC(CCS(=O)(=O)[O-])OC.[Na+],"InChI=1S/C13H28O4S.Na/c1-3-4-5-6-7-8-9-10-13(17-2)11-12-18(14,15)16;/h13H,3-12H2,1-2H3,(H,14,15,16);/q;+1/p-1",MLYAMXCMIBEQGK-UHFFFAOYSA-M,302.152774624,0.007621,2.11798803837334,,,,,,,25,anionic,10.1021/ci600462d,,10.1006/jcis.1996.4680,,,,,,
,CCCCCCCCCC(CCS(=O)(=O)[O-])OCC.[Na+],"InChI=1S/C14H30O4S.Na/c1-3-5-6-7-8-9-10-11-14(18-4-2)12-13-19(15,16)17;/h14H,3-13H2,1-2H3,(H,15,16,17);/q;+1/p-1",XOZXIGCVIHULPH-UHFFFAOYSA-M,316.168424688,0.005,2.30102999566398,,,,,,,25,anionic,10.1021/ci600462d,,10.1006/jcis.1996.4680,,,,,,
,CCCCCCCCCC(CCS(=O)(=O)[O-])OCCC.[Na+],"InChI=1S/C15H32O4S.Na/c1-3-5-6-7-8-9-10-11-15(19-13-4-2)12-14-20(16,17)18;/h15H,3-14H2,1-2H3,(H,16,17,18);/q;+1/p-1",LRUVEYGSMQTUOO-UHFFFAOYSA-M,330.184074752,0.003802,2.41998788747058,,,,,,,25,anionic,10.1021/ci600462d,,10.1006/jcis.1996.4680,,,,,,
,CCCCCCCCCC(CCS(=O)(=O)[O-])OCCCC.[Na+],"InChI=1S/C16H34O4S.Na/c1-3-5-7-8-9-10-11-12-16(20-14-6-4-2)13-15-21(17,18)19;/h16H,3-15H2,1-2H3,(H,17,18,19);/q;+1/p-1",DTWOCEVECSBBGL-UHFFFAOYSA-M,344.199724816,0.001524,2.81701503299642,,,,,,,25,anionic,10.1021/ci600462d,,10.1006/jcis.1996.4680,,,,,,
,CCCCCCCCCC(CCS(=O)(=O)[O-])OCCCCCC.[Na+],"InChI=1S/C18H38O4S.Na/c1-3-5-7-9-10-11-12-14-18(15-17-23(19,20)21)22-16-13-8-6-4-2;/h18H,3-17H2,1-2H3,(H,19,20,21);/q;+1/p-1",IQMWKWREFPLTJR-UHFFFAOYSA-M,372.231024944,0.0006531,3.18502031623924,,,,,,,25,anionic,10.1021/ci600462d,,10.1006/jcis.1996.4680,,,,,,
,CCCCCCCCCC(CCS(=O)(=O)[O-])OCCCCCCCC.[Na+],"InChI=1S/C20H42O4S.Na/c1-3-5-7-9-11-12-14-16-20(17-19-25(21,22)23)24-18-15-13-10-8-6-4-2;/h20H,3-19H2,1-2H3,(H,21,22,23);/q;+1/p-1",WBMVFSKWXVKWJV-UHFFFAOYSA-M,400.262325072,0.0001197,3.92190584959359,,,,,,,25,anionic,10.1021/ci600462d,,10.1006/jcis.1996.4680,,,,,,
,CCCCCCCCCC(CCS(=O)(=O)[O-])Oc1ccccc1.[Na+],"InChI=1S/C18H30O4S.Na/c1-2-3-4-5-6-7-9-14-18(15-16-23(19,20)21)22-17-12-10-8-11-13-17;/h8,10-13,18H,2-7,9,14-16H2,1H3,(H,19,20,21);/q;+1/p-1",PCDUQPIFUKPWKP-UHFFFAOYSA-M,364.168424688,0.001959,2.70796556400526,,,,,,,25,anionic,10.1021/ci600462d,,10.1006/jcis.1996.4680,,,,,,
,CCCCCCCCCC(CS(=O)(=O)[O-])OCO.[Na+],"InChI=1S/C12H26O5S.Na/c1-2-3-4-5-6-7-8-9-12(17-11-13)10-18(14,15)16;/h12-13H,2-11H2,1H3,(H,14,15,16);/q;+1/p-1",HJVUEHFJDQMRSB-UHFFFAOYSA-M,304.13203918,0.02393,1.62105730138656,,,,,,,25,anionic,10.1021/ci600462d,,,,,,,,
sodium-3-hydroxydodecane-1-sulfonate,CCCCCCCCCC(O)CCS(=O)(=O)[O-].[Na+],"InChI=1S/C12H26O4S.Na/c1-2-3-4-5-6-7-8-9-12(13)10-11-17(14,15)16;/h12-13H,2-11H2,1H3,(H,14,15,16);/q;+1/p-1",GUNDCQDQIPEOFE-UHFFFAOYSA-M,288.13712456,0.02477,1.60607399341416,,,,,,,25,anionic,10.1021/ci600462d,,10.1006/jcis.1996.4680,,,,,,
"undecane-1,2-diol",CCCCCCCCCC(O)CO,"InChI=1S/C11H24O2/c1-2-3-4-5-6-7-8-9-11(13)10-12/h11-13H,2-10H2,1H3",BUMVVNKGNPPUME-UHFFFAOYSA-N,188.177630008,0.002301,2.63808338133136,,,,,,,25,non-ionic,10.1021/ie4016232,,,,,,,,
,CCCCCCCCCC(O)NCCOCCO,"InChI=1S/C14H31NO3/c1-2-3-4-5-6-7-8-9-14(17)15-10-12-18-13-11-16/h14-17H,2-13H2,1H3",MCLNYBIXLHMCSX-UHFFFAOYSA-N,261.230393852,0.00026,3.58502665202918,,,,,,,25,non-ionic,10.1021/ie4016232,,,,,,,,
,CCCCCCCCCC(O)NCCOCCOCCOCCO,"InChI=1S/C18H39NO5/c1-2-3-4-5-6-7-8-9-18(21)19-10-12-22-14-16-24-17-15-23-13-11-20/h18-21H,2-17H2,1H3",HCZGKUDDVOOXRW-UHFFFAOYSA-N,349.282823348,0.005023,2.29903682184045,,,,,,,25,non-ionic,10.1021/ie4016232,,,,,,,,
,CCCCCCCCCC(O)NCCOCCOCCOCCOCCO,"InChI=1S/C20H43NO6/c1-2-3-4-5-6-7-8-9-20(23)21-10-12-24-14-16-26-18-19-27-17-15-25-13-11-22/h20-23H,2-19H2,1H3",HWSCJFWEFYGCPX-UHFFFAOYSA-N,393.309038096,0.006412,2.19300648631789,,,,,,,25,non-ionic,10.1021/ie4016232,,,,,,,,
,CCCCCCCCCC(O)OCCOCCOCCOCC,"InChI=1S/C18H38O5/c1-3-5-6-7-8-9-10-11-18(19)23-17-16-22-15-14-21-13-12-20-4-2/h18-19H,3-17H2,1-2H3",BOSKHJIVQCTMNX-UHFFFAOYSA-N,334.271924316,0.00068,3.16749108729376,,,,,,,25,non-ionic,10.1002/9781118228920.ch3,,,,,,,,
,CCCCCCCCCC(O)OCCOCCOCCOCCOCC,"InChI=1S/C20H42O6/c1-3-5-6-7-8-9-10-11-20(21)26-19-18-25-17-16-24-15-14-23-13-12-22-4-2/h20-21H,3-19H2,1-2H3",YNTFEOGIWGJVTM-UHFFFAOYSA-N,378.298139064,0.00076,3.11918640771921,,,,,,,25,non-ionic,10.1002/9781118228920.ch3,,,,,,,,
,CCCCCCCCCC(O)OCCOCCOCCOCCOCCOCC,"InChI=1S/C22H46O7/c1-3-5-6-7-8-9-10-11-22(23)29-21-20-28-19-18-27-17-16-26-15-14-25-13-12-24-4-2/h22-23H,3-21H2,1-2H3",LXLXAEKEIBSGLE-UHFFFAOYSA-N,422.324353812,0.0009,3.04575749056068,30,0.000003,0.55,42,4.28,0.0000529,25,non-ionic,10.1002/9781118228920.ch3,10.1002/9781118228920.ch5,,,10.1002/9781118228920.ch5,10.1002/9781118228920.ch5,,,
,CCCCCCCCCC(O)OCCOCCOCCOCCOCCOCCOCCOCC,"InChI=1S/C26H54O9/c1-3-5-6-7-8-9-10-11-26(27)35-25-24-34-23-22-33-21-20-32-19-18-31-17-16-30-15-14-29-13-12-28-4-2/h26-27H,3-25H2,1-2H3",MOEOXIFKDQYQMS-UHFFFAOYSA-N,510.376783308,0.001,3,35.6,0.00000238,0.7,36.4,4.22,0.0000599,25,non-ionic,10.1002/9781118228920.ch3,10.1002/9781118228920.ch5,,,10.1002/9781118228920.ch5,10.1002/9781118228920.ch5,,,
,CCCCCCCCCC(OCC)(OCC)OS(=O)(=O)[O-].[Na+],"InChI=1S/C14H30O6S.Na/c1-4-7-8-9-10-11-12-13-14(18-5-2,19-6-3)20-21(15,16)17;/h4-13H2,1-3H3,(H,15,16,17);/q;+1/p-1",DYLJUDCXPFCBSC-UHFFFAOYSA-M,348.158253928,0.0123,1.9100948885606,,,,,,,25,anionic,10.1021/ci600462d,,10.1016/j.jfluchem.2003.08.007,,,,,,
,CCCCCCCCCC(OCC)S(=O)(=O)[O-].[Na+],"InChI=1S/C12H26O4S.Na/c1-3-5-6-7-8-9-10-11-12(16-4-2)17(13,14)15;/h12H,3-11H2,1-2H3,(H,13,14,15);/q;+1/p-1",VEXFBUIJZZAPJE-UHFFFAOYSA-M,288.13712456,0.01633,1.78701381526333,,,,,,,25,anionic,10.1021/ci600462d,,,,,,,,