IUPAC_name,SMILES,InChI,InChIKey,Molecular_Weight,CMC,pCMC,AW_ST_CMC,Gamma_max,Area_min,Pi_CMC,PC20,C20,Temp_Celsius,Surfactant_Type,Ref_CMC,Ref_AW_ST_CMC,SubRef_CMC,SubRef_AW_ST_CMC,Ref_Gamma_max,Ref_Pi_CMC,Ref_Area_min,Ref_PC20,Ref_C20
,CCCCCCCCc1ccccc1OOCCOCCOCCOCC,"InChI=1S/C22H38O5/c1-3-5-6-7-8-9-12-21-13-10-11-14-22(21)27-26-20-19-25-18-17-24-16-15-23-4-2/h10-11,13-14H,3-9,12,15-20H2,1-2H3",KMXIOTNHQFONBC-UHFFFAOYSA-N,382.271924316,0.00013,3.88605664769316,,,,,,,25,non-ionic,10.1021/ie4016232,,,,,,,,
,CCCCCCCCc1ccccc1OOCCOCCOCCOCCOCC,"InChI=1S/C24H42O6/c1-3-5-6-7-8-9-12-23-13-10-11-14-24(23)30-29-22-21-28-20-19-27-18-17-26-16-15-25-4-2/h10-11,13-14H,3-9,12,15-22H2,1-2H3",OPTXNYZEHPEONM-UHFFFAOYSA-N,426.298139064,0.00015,3.82390874094432,,,,,,,25,non-ionic,10.1021/ie4016232,,,,,,,,
,CCCCCCCCc1ccccc1OOCCOCCOCCOCCOCCOCC,"InChI=1S/C26H46O7/c1-3-5-6-7-8-9-12-25-13-10-11-14-26(25)33-32-24-23-31-22-21-30-20-19-29-18-17-28-16-15-27-4-2/h10-11,13-14H,3-9,12,15-24H2,1-2H3",XSASEOYEMCAMIV-UHFFFAOYSA-N,470.324353812,0.0002099,3.6779875614176,30,,,42,,,25,non-ionic,10.1021/ie4016232,,,,,,,,
,CCCCCCCCc1ccccc1OOCCOCCOCCOCCOCCOCCOCC,"InChI=1S/C28H50O8/c1-3-5-6-7-8-9-12-27-13-10-11-14-28(27)36-35-26-25-34-24-23-33-22-21-32-20-19-31-18-17-30-16-15-29-4-2/h10-11,13-14H,3-9,12,15-26H2,1-2H3",LWLOOSJLCOBRGR-UHFFFAOYSA-N,514.35056856,0.00025,3.60205999132796,,,,,,,25,non-ionic,10.1021/ie4016232,,,,,,,,
,CCCCCCCCc1ccccc1OOCCOCCOCCOCCOCCOCCOCCOCC,"InChI=1S/C30H54O9/c1-3-5-6-7-8-9-12-29-13-10-11-14-30(29)39-38-28-27-37-26-25-36-24-23-35-22-21-34-20-19-33-18-17-32-16-15-31-4-2/h10-11,13-14H,3-9,12,15-28H2,1-2H3",JRVZCMHEUUOCRB-UHFFFAOYSA-N,558.376783308,0.0002799,3.55299710153384,32,,,40,,,25,non-ionic,10.1021/ie4016232,10.1081/DIS-200054572,,,,,,,
,CCCCCCCCc1ccccc1OOCCOCCOCCOCCOCCOCCOCCOCCOCC,"InChI=1S/C32H58O10/c1-3-5-6-7-8-9-12-31-13-10-11-14-32(31)42-41-30-29-40-28-27-39-26-25-38-24-23-37-22-21-36-20-19-35-18-17-34-16-15-33-4-2/h10-11,13-14H,3-9,12,15-30H2,1-2H3",SELLQROFQFKRLG-UHFFFAOYSA-N,602.402998056,0.0002999,3.52302353424047,33.5,,,38.5,,,25,non-ionic,10.1021/ie4016232,10.1081/DIS-200054572,,,,,,,
,CCCCCCCCc1ccccc1OOCCOCCOCCOCCOCCOCCOCCOCCOCCOCC,"InChI=1S/C34H62O11/c1-3-5-6-7-8-9-12-33-13-10-11-14-34(33)45-44-32-31-43-30-29-42-28-27-41-26-25-40-24-23-39-22-21-38-20-19-37-18-17-36-16-15-35-4-2/h10-11,13-14H,3-9,12,15-32H2,1-2H3",IXCOEUPTHOYDFQ-UHFFFAOYSA-N,646.429212804,0.0003304,3.48095996135166,35,,,37,,,25,non-ionic,10.1021/ie4016232,10.1081/DIS-200054572,,,,,,,
,CCCCCCCCc1ccccc1OOCCOCCOCCOCCOCCOCCOCCOCCOCCOCCOCCOCCOCCOCCOCCOCCOCCOCCOCCOCCOCCOCCOCCOCCOCCOCCOCCOCCOCCOCC,"InChI=1S/C74H142O31/c1-3-5-6-7-8-9-12-73-13-10-11-14-74(73)105-104-72-71-103-70-69-102-68-67-101-66-65-100-64-63-99-62-61-98-60-59-97-58-57-96-56-55-95-54-53-94-52-51-93-50-49-92-48-47-91-46-45-90-44-43-89-42-41-88-40-39-87-38-37-86-36-35-85-34-33-84-32-31-83-30-29-82-28-27-81-26-25-80-24-23-79-22-21-78-20-19-77-18-17-76-16-15-75-4-2/h10-11,13-14H,3-9,12,15-72H2,1-2H3",JNRLANCUMPYQTE-UHFFFAOYSA-N,1526.953507764,0.0001099,3.95900230757651,,,,,,,25,non-ionic,10.1021/ie4016232,,,,,,,,
,CCCCCCCCc1ccccc1OOCCOCCOCCOCCOCCOCCOCCOCCOCCOCCOCCOCCOCCOCCOCCOCCOCCOCCOCCOCCOCCOCCOCCOCCOCCOCCOCCOCCOCCOCCOCCOCCOCCOCCOCCOCCOCCOCCOCCOCC,"InChI=1S/C94H182O41/c1-3-5-6-7-8-9-12-93-13-10-11-14-94(93)135-134-92-91-133-90-89-132-88-87-131-86-85-130-84-83-129-82-81-128-80-79-127-78-77-126-76-75-125-74-73-124-72-71-123-70-69-122-68-67-121-66-65-120-64-63-119-62-61-118-60-59-117-58-57-116-56-55-115-54-53-114-52-51-113-50-49-112-48-47-111-46-45-110-44-43-109-42-41-108-40-39-107-38-37-106-36-35-105-34-33-104-32-31-103-30-29-102-28-27-101-26-25-100-24-23-99-22-21-98-20-19-97-18-17-96-16-15-95-4-2/h10-11,13-14H,3-9,12,15-92H2,1-2H3",YDMAQWJUZUIFAI-UHFFFAOYSA-N,1967.215655244,0.00007603,4.11901500951325,,,,,,,25,non-ionic,10.1021/ie4016232,,,,,,,,
,CCCCCCCCn1cc[n+](C)c1.[Cl-],"InChI=1S/C12H23N2.ClH/c1-3-4-5-6-7-8-9-14-11-10-13(2)12-14;/h10-12H,3-9H2,1-2H3;1H/q+1;/p-1",OXFBEEDAZHXDHB-UHFFFAOYSA-M,230.154976416,,,37,,,,,,,cationic,,10.1016/j.ces.2022.118208,,10.1021/la035940m,,,,,
,CCCCCCCCn1cc[n+](C)c1.[I-],"InChI=1S/C12H23N2.HI/c1-3-4-5-6-7-8-9-14-11-10-13(2)12-14;/h10-12H,3-9H2,1-2H3;1H/q+1;/p-1",KRLZUNVVBLGDJV-UHFFFAOYSA-M,322.090596736,,,34.5,,,,,,,cationic,,10.1016/j.ces.2022.118208,,10.1021/la035940m,,,,,
,CCCCCCCCn1cc[n+](CC(O)C[n+]2ccn(CCCCCCCC)c2)c1.[Cl-].[Cl-],"InChI=1S/C25H46N4O.2ClH/c1-3-5-7-9-11-13-15-26-17-19-28(23-26)21-25(30)22-29-20-18-27(24-29)16-14-12-10-8-6-4-2;;/h17-20,23-25,30H,3-16,21-22H2,1-2H3;2*1H/q+2;;/p-2",NTGFXHRUTZNVSO-UHFFFAOYSA-L,488.304867452,0.004365,2.36001575195841,,,,,,,25,gemini cationic,10.1063/5.0051623,,10.1002/9781119075691.ch43,,,,,,
,CCCCCCCCn1cc[n+](COCCCCCCOC[n+]2ccn(CCCCCCCC)c2)c1.[Cl-].[Cl-],"InChI=1S/C30H56N4O2.2ClH/c1-3-5-7-9-11-15-19-31-21-23-33(27-31)29-35-25-17-13-14-18-26-36-30-34-24-22-32(28-34)20-16-12-10-8-6-4-2;;/h21-24,27-28H,3-20,25-26,29-30H2,1-2H3;2*1H/q+2;;/p-2",XOAPOFCTZOMPTR-UHFFFAOYSA-L,574.378032392,0.0013489628825916,2.87000000000002,34.2,0.00000228,0.77,37.8,3.32582796321025,0.0359427471579155,25,gemini cationic,10.1111/cbdd.12236,10.1111/cbdd.12236,10.1111/cbdd.12236,,10.1111/cbdd.12236,10.1111/cbdd.12236,10.1111/cbdd.12236,calculated,calculated
,CCCCCCCCn1cc[n+](COCCCCCOC[n+]2ccn(CCCCCCCC)c2)c1.[Cl-].[Cl-],"InChI=1S/C29H54N4O2.2ClH/c1-3-5-7-9-11-14-18-30-20-22-32(26-30)28-34-24-16-13-17-25-35-29-33-23-21-31(27-33)19-15-12-10-8-6-4-2;;/h20-23,26-27H,3-19,24-25,28-29H2,1-2H3;2*1H/q+2;;/p-2",JFHDNOYHPGTIEI-UHFFFAOYSA-L,560.362382328,0.0014791083881682,2.83,45.6,0.0000024,0.72,26.4,2.9856985402426,0.0505042119997835,25,gemini cationic,10.1111/cbdd.12236,10.1111/cbdd.12236,10.1111/cbdd.12236,,10.1111/cbdd.12236,10.1111/cbdd.12236,10.1111/cbdd.12236,calculated,calculated
,CCCCCCCCn1cc[n+](COCCCCOC[n+]2ccn(CCCCCCCC)c2)c1.[Cl-].[Cl-],"InChI=1S/C28H52N4O2.2ClH/c1-3-5-7-9-11-13-17-29-19-21-31(25-29)27-33-23-15-16-24-34-28-32-22-20-30(26-32)18-14-12-10-8-6-4-2;;/h19-22,25-26H,3-18,23-24,27-28H2,1-2H3;2*1H/q+2;;/p-2",UQEBYOQZGJGCRR-UHFFFAOYSA-L,546.346732264,0.0016218100973589,2.79000000000001,46.7,0.00000243,0.7,25.3,2.91734602828485,0.0540770158918303,25,gemini cationic,10.1111/cbdd.12236,10.1111/cbdd.12236,10.1111/cbdd.12236,,10.1111/cbdd.12236,10.1111/cbdd.12236,10.1111/cbdd.12236,calculated,calculated
,CCCCCCCCn1cc[n+](COCCCOC[n+]2ccn(CCCCCCCC)c2)c1.[Cl-].[Cl-],"InChI=1S/C27H50N4O2.2ClH/c1-3-5-7-9-11-13-16-28-18-20-30(24-28)26-32-22-15-23-33-27-31-21-19-29(25-31)17-14-12-10-8-6-4-2;;/h18-21,24-25H,3-17,22-23,26-27H2,1-2H3;2*1H/q+2;;/p-2",GEWBMOPVGHHPHB-UHFFFAOYSA-L,532.3310822,0.0017782794100389,2.75000000000001,47.9,0.00000246,0.68,24.1,2.84731158765163,0.0580000394854906,25,gemini cationic,10.1111/cbdd.12236,10.1111/cbdd.12236,10.1111/cbdd.12236,,10.1111/cbdd.12236,10.1111/cbdd.12236,10.1111/cbdd.12236,calculated,calculated
,CCCCCCCCn1cc[n+](COCCOC[n+]2ccn(CCCCCCCC)c2)c1.[Cl-].[Cl-],"InChI=1S/C26H48N4O2.2ClH/c1-3-5-7-9-11-13-15-27-17-19-29(23-27)25-31-21-22-32-26-30-20-18-28(24-30)16-14-12-10-8-6-4-2;;/h17-20,23-24H,3-16,21-22,25-26H2,1-2H3;2*1H/q+2;;/p-2",BJPBJWCQYSHTJP-UHFFFAOYSA-L,518.315432136,0.0019054607179632,2.72000000000001,48.9,0.00000249,0.66,23.1,2.79269058354701,0.0612561771295948,25,gemini cationic,10.1111/cbdd.12236,10.1111/cbdd.12236,10.1111/cbdd.12236,,10.1111/cbdd.12236,10.1111/cbdd.12236,10.1111/cbdd.12236,calculated,calculated
Hexyl-D-maltonamide,CCCCCCCNC(=O)C(O)C(O)C(OC1OC(CO)C(O)C(O)C1O)C(O)CO,"InChI=1S/C19H37NO11/c1-2-3-4-5-6-7-20-18(29)15(27)14(26)17(10(23)8-21)31-19-16(28)13(25)12(24)11(9-22)30-19/h10-17,19,21-28H,2-9H2,1H3,(H,20,29)",VWHIVVZUAGRPOH-UHFFFAOYSA-N,455.236661004,0.083,1.08092190762393,32.2,0.00000253,0.66,39.8,2.5,0.00316,25,sugar-based non-ionic,10.1021/acs.iecr.6b02890,10.1016/j.jcis.2018.01.051,10.1016/j.molliq.2018.01.037,,10.1006/jcis.1996.0054,,,,
"1-O-heptanoyl-D,L-xylitol",CCCCCCCOC(=O)C([C@@H](O)C(O)[C@@H](O)CO)[C@@H](O)CO,"InChI=1S/C15H30O8/c1-2-3-4-5-6-7-23-15(22)12(10(18)8-16)14(21)13(20)11(19)9-17/h10-14,16-21H,2-9H2,1H3/t10-,11-,12?,13?,14+/m0/s1",CMGJISWXBIHQAC-HRDMENRUSA-N,338.19406792,0.01,2,30,,,41.97,,,25,sugar-based non-ionic,10.1021/acs.iecr.6b02890,10.1016/j.jcis.2018.01.051,10.1016/j.molliq.2018.01.037,,,calculated,,,
"1-O-heptyl-D,L-xylitol",CCCCCCCOC([C@@H](O)C(O)[C@@H](O)CO)[C@@H](O)CO,"InChI=1S/C14H30O7/c1-2-3-4-5-6-7-21-14(11(18)9-16)13(20)12(19)10(17)8-15/h10-20H,2-9H2,1H3/t10-,11-,12?,13-,14?/m0/s1",FZVMQUZFSLAALX-YCQMLSDISA-N,310.1991533,0.0092,2.03621217265445,,0.0000046,0.36,,2.9,0.0012589254117941,25,sugar-based non-ionic,10.1021/acs.iecr.6b02890,,10.1016/j.molliq.2018.01.037,,10.1016/S0378-5173(99)00078-2,,10.1016/S0378-5173(99)00078-2,10.1016/S0378-5173(99)00078-2,
,CCCCCCCOC1[CH][C@H](O)[C@@H](O)C(O)O1,"InChI=1S/C12H23O5/c1-2-3-4-5-6-7-16-10-8-9(13)11(14)12(15)17-10/h8-15H,2-7H2,1H3/t9-,10?,11+,12?/m0/s1",OCFXLWXOAJKJGQ-UZEXVOJHSA-N,247.154548836,0.009204,2.03602339000339,,,,,,,25,non-ionic,10.1021/ie4016232,,,,,,,,
,CCCCCCCOCOC1[CH][C@H](O)[C@@H](O)C(O)O1,"InChI=1S/C13H25O6/c1-2-3-4-5-6-7-17-9-18-11-8-10(14)12(15)13(16)19-11/h8,10-16H,2-7,9H2,1H3/t10-,11?,12+,13?/m0/s1",AUTPIJGALPTCFX-GMKTYKIGSA-N,277.16511352,0.01799,1.74496883665445,,,,,,,25,non-ionic,10.1021/ie4016232,,,,,,,,
sodium-heptyl-sulfate,CCCCCCCOS(=O)(=O)[O-].[Na+],"InChI=1S/C7H16O4S.Na/c1-2-3-4-5-6-7-11-12(8,9)10;/h2-7H2,1H3,(H,8,9,10);/q;+1/p-1",GRNNMEITWDFPOL-UHFFFAOYSA-M,218.05887424,0.2198,0.657972311912528,,,,,,,25,anionic,10.1021/ci600462d,,10.1016/j.theochem.2004.08.039,,,,,,
sodium-4-heptylbenzenesulfonate,CCCCCCCc1ccc(S(=O)(=O)[O-])cc1.[Na+],"InChI=1S/C13H20O3S.Na/c1-2-3-4-5-6-7-12-8-10-13(11-9-12)17(14,15)16;/h8-11H,2-7H2,1H3,(H,14,15,16);/q;+1/p-1",DBAKYVUEBDXQGD-UHFFFAOYSA-M,278.095259748,0.02618,1.58203035778526,,,,,,,25,anionic,10.1021/ci600462d,,10.1016/j.theochem.2004.08.039,,,,,,
,CCCCCCCn1cc[n+](COCCCCCCOC[n+]2ccn(CCCCCCC)c2)c1.[Cl-].[Cl-],"InChI=1S/C28H52N4O2.2ClH/c1-3-5-7-9-13-17-29-19-21-31(25-29)27-33-23-15-11-12-16-24-34-28-32-22-20-30(26-32)18-14-10-8-6-4-2;;/h19-22,25-26H,3-18,23-24,27-28H2,1-2H3;2*1H/q+2;;/p-2",TXXHNSAIROUHRQ-UHFFFAOYSA-L,546.346732264,0.0016218100973589,2.79000000000001,35.1,0.00000234,0.74,36.9,3.21168354649037,0.0402887281972675,25,gemini cationic,10.1111/cbdd.12236,10.1111/cbdd.12236,10.1111/cbdd.12236,,10.1111/cbdd.12236,10.1111/cbdd.12236,10.1111/cbdd.12236,calculated,calculated
,CCCCCCCn1cc[n+](COCCCCCOC[n+]2ccn(CCCCCCC)c2)c1.[Cl-].[Cl-],"InChI=1S/C27H50N4O2.2ClH/c1-3-5-7-9-12-16-28-18-20-30(24-28)26-32-22-14-11-15-23-33-27-31-21-19-29(25-31)17-13-10-8-6-4-2;;/h18-21,24-25H,3-17,22-23,26-27H2,1-2H3;2*1H/q+2;;/p-2",JHMYCPUATZKGOP-UHFFFAOYSA-L,532.3310822,0.0017782794100389,2.75000000000001,47.8,0.00000244,0.7,24.2,2.85050213150906,0.0578152827098061,25,gemini cationic,10.1111/cbdd.12236,10.1111/cbdd.12236,10.1111/cbdd.12236,,10.1111/cbdd.12236,10.1111/cbdd.12236,10.1111/cbdd.12236,calculated,calculated
,CCCCCCCn1cc[n+](COCCCCOC[n+]2ccn(CCCCCCC)c2)c1.[Cl-].[Cl-],"InChI=1S/C26H48N4O2.2ClH/c1-3-5-7-9-11-15-27-17-19-29(23-27)25-31-21-13-14-22-32-26-30-20-18-28(24-30)16-12-10-8-6-4-2;;/h17-20,23-24H,3-16,21-22,25-26H2,1-2H3;2*1H/q+2;;/p-2",HILQFLANIMFRPX-UHFFFAOYSA-L,518.315432136,0.001949844599758,2.71000000000001,48.9,0.00000247,0.68,23.1,2.78327917126803,0.0618354056710901,25,gemini cationic,10.1111/cbdd.12236,10.1111/cbdd.12236,10.1111/cbdd.12236,,10.1111/cbdd.12236,10.1111/cbdd.12236,10.1111/cbdd.12236,calculated,calculated
,CCCCCCCn1cc[n+](COCCCOC[n+]2ccn(CCCCCCC)c2)c1.[Cl-].[Cl-],"InChI=1S/C25H46N4O2.2ClH/c1-3-5-7-9-11-14-26-16-18-28(22-26)24-30-20-13-21-31-25-29-19-17-27(23-29)15-12-10-8-6-4-2;;/h16-19,22-23H,3-15,20-21,24-25H2,1-2H3;2*1H/q+2;;/p-2",QLTVPBHEHGSLMA-UHFFFAOYSA-L,504.299782072,0.002089296130854,2.68000000000001,50.1,0.00000259,0.66,21.9,2.72283212738335,0.0656884526701996,25,gemini cationic,10.1111/cbdd.12236,10.1111/cbdd.12236,10.1111/cbdd.12236,,10.1111/cbdd.12236,10.1111/cbdd.12236,10.1111/cbdd.12236,calculated,calculated
,CCCCCCCn1cc[n+](COCCOC[n+]2ccn(CCCCCCC)c2)c1.[Cl-].[Cl-],"InChI=1S/C24H44N4O2.2ClH/c1-3-5-7-9-11-13-25-15-17-27(21-25)23-29-19-20-30-24-28-18-16-26(22-28)14-12-10-8-6-4-2;;/h15-18,21-22H,3-14,19-20,23-24H2,1-2H3;2*1H/q+2;;/p-2",AILQTXPRCUIMQM-UHFFFAOYSA-L,490.284132008,0.0022387211385683,2.65000000000001,51.2,0.00000253,0.64,20.8,2.66846227749913,0.0693587979330001,25,gemini cationic,10.1111/cbdd.12236,10.1111/cbdd.12236,10.1111/cbdd.12236,,10.1111/cbdd.12236,10.1111/cbdd.12236,10.1111/cbdd.12236,calculated,calculated
"1-O-hexanoyl-D,L-xylitol",CCCCCCOC(=O)C([C@@H](O)C(O)[C@@H](O)CO)[C@@H](O)CO,"InChI=1S/C14H28O8/c1-2-3-4-5-6-22-14(21)11(9(17)7-15)13(20)12(19)10(18)8-16/h9-13,15-20H,2-8H2,1H3/t9-,10-,11?,12?,13+/m0/s1",NNEZMCGMULUGKV-YJEBHAJESA-N,324.178417856,0.058,1.23657200643706,33.2,,,38.77,,,25,sugar-based non-ionic,10.1021/acs.iecr.6b02890,10.1016/j.jcis.2018.01.051,10.1016/j.molliq.2018.01.037,,,calculated,,,
"sodium-1,4-dihexoxy-1,4-dioxobutane-2-sulfonate",CCCCCCOC(=O)CC(C(=O)OCCCCCC)S(=O)(=O)[O-].[Na+],"InChI=1S/C16H30O7S.Na/c1-3-5-7-9-11-22-15(17)13-14(24(19,20)21)16(18)23-12-10-8-6-4-2;/h14H,3-13H2,1-2H3,(H,19,20,21);/q;+1/p-1",WVFDILODTFJAPA-UHFFFAOYSA-M,388.153168548,0.0014,2.85387196432176,,,,,,,25,anionic,10.1021/acs.jpcb.1c05264,,10.1002/9781118228920,,,,,,
,CCCCCCOC(=O)CC([N+])C(=O)OCCCCCC.[Cl-],"InChI=1S/C16H29NO4.ClH/c1-3-5-7-9-11-20-15(18)13-14(17)16(19)21-12-10-8-6-4-2;/h14H,3-13H2,1-2H3;1H/q+1;/p-1",VTJODAQBTAIMGO-UHFFFAOYSA-M,334.178511088,,,24.3,,,,,,,cationic,,10.1016/j.ces.2022.118208,,10.1002/jsde.12437,,,,,
,CCCCCCOC(=O)CS(=O)(=O)[O-].[Na+],"InChI=1S/C8H16O5S.Na/c1-2-3-4-5-6-13-8(9)7-14(10,11)12;/h2-7H2,1H3,(H,10,11,12);/q;+1/p-1",LVHAGLUZNVJZMN-UHFFFAOYSA-M,246.05378886,0.17,0.769551078621726,,,,,,,25,anionic,10.1002/9781118228920.ch3,,,,,,,,
1-O-hexyl-D-L-xylitol,CCCCCCOC([C@@H](O)C(O)[C@@H](O)CO)[C@@H](O)CO,"InChI=1S/C13H28O7/c1-2-3-4-5-6-20-13(10(17)8-15)12(19)11(18)9(16)7-14/h9-19H,2-8H2,1H3/t9-,10-,11?,12-,13?/m0/s1",ZGWQBDYPUJLHQK-ZTXIBQBTSA-N,296.183503236,0.0094,2.0268721464003,,,,,,,25,sugar-based non-ionic,10.1021/acs.iecr.6b02890,,10.1016/j.molliq.2018.01.037,,,,,,
,CCCCCCOC1[CH][C@H](O)[C@@H](O)C(O)O1,"InChI=1S/C11H21O5/c1-2-3-4-5-6-15-9-7-8(12)10(13)11(14)16-9/h7-14H,2-6H2,1H3/t8-,9?,10+,11?/m0/s1",BGEUMORYMQPOIJ-QPBDYMMBSA-N,233.138898772,0.009397,2.02701077314465,,,,,,,25,non-ionic,10.1021/ie4016232,,,,,,,,
2-[2-(2-hexoxyethoxy)ethoxy]ethanol,CCCCCCOCCOCCOCCO,"InChI=1S/C12H26O4/c1-2-3-4-5-7-14-9-11-16-12-10-15-8-6-13/h13H,2-12H2,1H3",RGICCULPCWNRAB-UHFFFAOYSA-N,234.183109312,0.1,1,30.4,,,41.57,,,25,non-ionic,10.1021/acs.jpcb.1c05264,10.1016/j.ces.2022.118208,10.1002/9781118228920,10.1021/acs.jpcc.9b01522,,calculated,,,
,CCCCCCOCCOCCOCCOCCO,"InChI=1S/C14H30O5/c1-2-3-4-5-7-16-9-11-18-13-14-19-12-10-17-8-6-15/h15H,2-14H2,1H3",VUEUVIPIBVJLCY-UHFFFAOYSA-N,278.20932406,,,32,,,,,,,non-ionic,,10.1016/j.ces.2022.118208,,10.1016/0095-8522(62)90020-X,,,,,
,CCCCCCOCCOCCOCCOCCOCCO,"InChI=1S/C16H34O6/c1-2-3-4-5-7-18-9-11-20-13-15-22-16-14-21-12-10-19-8-6-17/h17H,2-16H2,1H3",SCRHZMGASXVJSJ-UHFFFAOYSA-N,322.235538808,,,33,,,,,,,non-ionic,,10.1016/j.ces.2022.118208,,10.1016/0095-8522(62)90020-X,,,,,
,CCCCCCOCCOCCOCCOCCOCCOCCO,"InChI=1S/C18H38O7/c1-2-3-4-5-7-20-9-11-22-13-15-24-17-18-25-16-14-23-12-10-21-8-6-19/h19H,2-18H2,1H3",ONRPEGOPOCAWTH-UHFFFAOYSA-N,366.261753556,,,31.8,,,,,,,non-ionic,,10.1016/j.ces.2022.118208,,10.1002/0471670561,,,,,
,CCCCCCOCOC1[CH][C@H](O)[C@@H](O)C(O)O1,"InChI=1S/C12H23O6/c1-2-3-4-5-6-16-8-17-10-7-9(13)11(14)12(15)18-10/h7,9-15H,2-6,8H2,1H3/t9-,10?,11+,12?/m0/s1",CVPLMFWVTAMUGQ-UZEXVOJHSA-N,263.149463456,0.01,2,,,,,,,25,non-ionic,10.1021/ie4016232,,,,,,,,
,CCCCCCOOCCOCCOCC,"InChI=1S/C12H26O4/c1-3-5-6-7-8-15-16-12-11-14-10-9-13-4-2/h3-12H2,1-2H3",VVUNHXSCHYJKKZ-UHFFFAOYSA-N,234.183109312,0.1047,0.980053318321158,,,,,,,25,non-ionic,10.1021/ie4016232,,,,,,,,
,CCCCCCOOCCOCCOCCOCC,"InChI=1S/C14H30O5/c1-3-5-6-7-8-18-19-14-13-17-12-11-16-10-9-15-4-2/h3-14H2,1-2H3",AITJLHMYADIDBW-UHFFFAOYSA-N,278.20932406,0.0929,1.03198428600636,,,,,,,25,non-ionic,10.1021/ie4016232,,,,,,,,
,CCCCCCOOCCOCCOCCOCCOCC,"InChI=1S/C16H34O6/c1-3-5-6-7-8-21-22-16-15-20-14-13-19-12-11-18-10-9-17-4-2/h3-16H2,1-2H3",TYHNFKQHSLFCDE-UHFFFAOYSA-N,322.235538808,0.09616,1.01700554534134,,,,,,,25,non-ionic,10.1021/ie4016232,,,,,,,,
,CCCCCCOOCCOCCOCCOCCOCCOCC,"InChI=1S/C18H38O7/c1-3-5-6-7-8-24-25-18-17-23-16-15-22-14-13-21-12-11-20-10-9-19-4-2/h3-18H2,1-2H3",KZOURRNTLXIRJC-UHFFFAOYSA-N,366.261753556,0.06855,1.16399254087447,,,,,,,25,non-ionic,10.1021/ie4016232,,,,,,,,
sodium-hexyl-sulfate,CCCCCCOS(=O)(=O)[O-].[Na+],"InChI=1S/C6H14O4S.Na/c1-2-3-4-5-6-10-11(7,8)9;/h2-6H2,1H3,(H,7,8,9);/q;+1/p-1",WSVLUYNDHYCZGD-UHFFFAOYSA-M,204.043224176,0.4198,0.376957565753618,,,,,,,25,anionic,10.1021/ci600462d,,10.1016/j.theochem.2004.08.039,,,,,,
sodium-hexane-1-sulfonate,CCCCCCS(=O)(=O)[O-].[Na+],"InChI=1S/C6H14O3S.Na/c1-2-3-4-5-6-10(7,8)9;/h2-6H2,1H3,(H,7,8,9);/q;+1/p-1",QWSZRRAAFHGKCH-UHFFFAOYSA-M,188.048309556,0.3192,0.495937117321308,,,,,,,25,anionic,10.1021/ci600462d,,,,,,,,
S-hexyl5-thio-D-arabinonolactone,CCCCCCSC(O)[C@H]1OC(=O)[C@@H](O)[C@@H]1O,"InChI=1S/C11H20O5S/c1-2-3-4-5-6-17-11(15)9-7(12)8(13)10(14)16-9/h7-9,11-13,15H,2-6H2,1H3/t7-,8-,9-,11?/m0/s1",DLXAUAIGCODHJZ-QEJLEMLZSA-N,264.10314474,0.0067,2.17392519729917,25.1,0.00000335,0.5,47.65,3.4,0.000398,20,sugar-based non-ionic,10.1021/acs.iecr.6b02890,10.1016/j.jcis.2018.01.051,10.1016/j.molliq.2018.01.037,,10.1016/j.jcis.2004.01.020,calculated,10.1016/j.jcis.2004.01.020,10.1016/j.jcis.2004.01.020,
S-hexyl5-thio-D-xylonolactone,CCCCCCSC1OC(=O)[C@H](O)[C@@H](O)[C@@H]1O,"InChI=1S/C11H20O5S/c1-2-3-4-5-6-17-11-9(14)7(12)8(13)10(15)16-11/h7-9,11-14H,2-6H2,1H3/t7-,8-,9+,11?/m1/s1",YJEWEYUHTYSYQK-OEJXEDHQSA-N,264.10314474,0.005,2.30102999566398,26.3,0.00000412,0.4,46.45,3.4,0.000398,20,sugar-based non-ionic,10.1021/acs.iecr.6b02890,10.1016/j.jcis.2018.01.051,10.1016/j.molliq.2018.01.037,,10.1016/j.jcis.2004.01.020,calculated,10.1016/j.jcis.2004.01.020,10.1016/j.jcis.2004.01.020,
,CCCCCCSC1[CH][C@H](O)[C@@H](O)C(O)O1,"InChI=1S/C11H21O4S/c1-2-3-4-5-6-16-9-7-8(12)10(13)11(14)15-9/h7-14H,2-6H2,1H3/t8-,9?,10+,11?/m0/s1",UJSKXIICWYVJEZ-QPBDYMMBSA-N,249.116055152,0.016,1.79588001734408,,,,,,,25,non-ionic,10.1021/ie4016232,,,,,,,,
S-hexyl1-thio-L-ribitol,CCCCCCSC[C@@H](O)[C@@H](O)[C@@H](O)CO,"InChI=1S/C11H24O4S/c1-2-3-4-5-6-16-8-10(14)11(15)9(13)7-12/h9-15H,2-8H2,1H3/t9-,10+,11-/m0/s1",CWIYBVFBJJTFPA-AXFHLTTASA-N,252.139530248,0.0102,1.99139982823808,27.2,0.00000252,0.66,45.55,3.3,0.000501,20,sugar-based non-ionic,10.1021/acs.iecr.6b02890,10.1016/j.jcis.2018.01.051,10.1016/j.molliq.2018.01.037,,10.1016/j.jcis.2004.01.020,calculated,10.1016/j.jcis.2004.01.020,10.1016/j.jcis.2004.01.020,
S-hexyl1-thio-D-lyxitol,CCCCCCSC[C@@H](O)[C@@H](O)[C@H](O)CO,"InChI=1S/C11H24O4S/c1-2-3-4-5-6-16-8-10(14)11(15)9(13)7-12/h9-15H,2-8H2,1H3/t9-,10-,11+/m1/s1",CWIYBVFBJJTFPA-MXWKQRLJSA-N,252.139530248,0.018,1.74472749489669,30,0.00000251,0.66,42.75,3.3,0.000501,20,sugar-based non-ionic,10.1021/acs.iecr.6b02890,10.1016/j.jcis.2018.01.051,10.1016/j.molliq.2018.01.037,,10.1016/j.jcis.2004.01.020,calculated,10.1016/j.jcis.2004.01.020,10.1016/j.jcis.2004.01.020,
S-hexyl1-thio-L-xylitol,CCCCCCSC[C@H](O)[C@H](O)[C@@H](O)CO,"InChI=1S/C11H24O4S/c1-2-3-4-5-6-16-8-10(14)11(15)9(13)7-12/h9-15H,2-8H2,1H3/t9-,10-,11+/m0/s1",CWIYBVFBJJTFPA-GARJFASQSA-N,252.139530248,0.012,1.92081875395238,28.2,0.00000233,0.71,44.55,3.7,0.0002,20,sugar-based non-ionic,10.1021/acs.iecr.6b02890,10.1016/j.jcis.2018.01.051,10.1016/j.molliq.2018.01.037,,10.1016/j.jcis.2004.01.020,calculated,10.1016/j.jcis.2004.01.020,10.1016/j.jcis.2004.01.020,
,CCCCCC[N+](C)(C)CCCCC[N+](C)(C)CCCCCC.[Br-].[Br-],"InChI=1S/C21H48N2.2BrH/c1-7-9-11-14-18-22(3,4)20-16-13-17-21-23(5,6)19-15-12-10-8-2;;/h7-21H2,1-6H3;2*1H/q+2;;/p-2",KBKNITJCEFVXGH-UHFFFAOYSA-L,486.218423736,0.15999263828686,0.7959,,,,,,,25,gemini cationic,10.1016/j.chemosphere.2011.05.031,,,,,,,,